************************************************************
This is node01.cluster of cluster Pinconning.
Date: Wed May 13 12:33:57 PDT 2020
************************************************************
 Set GAUSS_MDEF to "32GB".
 Set GAUSS_PDEF to "12".
 Entering Gaussian System, Link 0=gdv
 Initial command:
 /opt/gaussian/gdv-20180628-i14+/gdv/l1.exe "/tmp/721160.1.allnodes.q/Gau-23253.inp" -scrdir="/tmp/721160.1.allnodes.q/"
 Default is to use a total of  12 processors:
                               12 via shared-memory
                                1 via Linda
 Entering Link 1 = /opt/gaussian/gdv-20180628-i14+/gdv/l1.exe PID=     23254.
  
 Copyright (c) 1988-2018, Gaussian, Inc.  All Rights Reserved.
  
 This is the private, development version of
 the Gaussian(R) DV system of programs. It is based on
 the Gaussian(R) 16 system (copyright 2016, Gaussian, Inc.),
 the Gaussian(R) 09 system (copyright 2009, Gaussian, Inc.),
 the Gaussian(R) 03 system (copyright 2003, Gaussian, Inc.),
 the Gaussian(R) 98 system (copyright 1998, Gaussian, Inc.),
 the Gaussian(R) 94 system (copyright 1995, Gaussian, Inc.),
 the Gaussian 92(TM) system (copyright 1992, Gaussian, Inc.),
 the Gaussian 90(TM) system (copyright 1990, Gaussian, Inc.),
 the Gaussian 88(TM) system (copyright 1988, Gaussian, Inc.),
 the Gaussian 86(TM) system (copyright 1986, Carnegie Mellon
 University), and the Gaussian 82(TM) system (copyright 1983,
 Carnegie Mellon University). Gaussian is a federally registered
 trademark of Gaussian, Inc.
  
 This software contains proprietary and confidential information,
 including trade secrets, belonging to Gaussian, Inc.
  
 This software is provided under written license and may be
 used, copied, transmitted, or stored only in accord with that
 written license.
  
 The following legend is applicable only to US Government
 contracts under FAR:
  
                    RESTRICTED RIGHTS LEGEND
  
 Use, reproduction and disclosure by the US Government is
 subject to restrictions as set forth in subparagraphs (a)
 and (c) of the Commercial Computer Software - Restricted
 Rights clause in FAR 52.227-19.
  
 Gaussian, Inc.
 340 Quinnipiac St., Bldg. 40, Wallingford CT 06492
  
  
 ---------------------------------------------------------------
 Warning -- This program may not be used in any manner that
 competes with the business of Gaussian, Inc. or will provide
 assistance to any competitor of Gaussian, Inc.  The licensee
 of this program is prohibited from giving any competitor of
 Gaussian, Inc. access to this program.  By using this program,
 the user acknowledges that Gaussian, Inc. is engaged in the
 business of creating and licensing software in the field of
 computational chemistry and represents and warrants to the
 licensee that it is not a competitor of Gaussian, Inc. and that
 it will not use this program in any manner prohibited above.
 ---------------------------------------------------------------
  

 Cite this work as:
 Gaussian Development Version, Revision I.14+,
 M. J. Frisch, G. W. Trucks, H. B. Schlegel, G. E. Scuseria, 
 M. A. Robb, J. R. Cheeseman, G. Scalmani, V. Barone, 
 G. A. Petersson, H. Nakatsuji, X. Li, M. Caricato, A. V. Marenich, 
 J. Bloino, B. G. Janesko, R. Gomperts, B. Mennucci, H. P. Hratchian, 
 J. V. Ortiz, A. F. Izmaylov, J. L. Sonnenberg, D. Williams-Young, 
 F. Ding, F. Lipparini, F. Egidi, J. Goings, B. Peng, A. Petrone, 
 T. Henderson, D. Ranasinghe, V. G. Zakrzewski, J. Gao, N. Rega, 
 G. Zheng, W. Liang, M. Hada, M. Ehara, K. Toyota, R. Fukuda, 
 J. Hasegawa, M. Ishida, T. Nakajima, Y. Honda, O. Kitao, H. Nakai, 
 T. Vreven, K. Throssell, J. A. Montgomery, Jr., J. E. Peralta, 
 F. Ogliaro, M. J. Bearpark, J. J. Heyd, E. N. Brothers, K. N. Kudin, 
 V. N. Staroverov, T. A. Keith, R. Kobayashi, J. Normand, 
 K. Raghavachari, A. P. Rendell, J. C. Burant, S. S. Iyengar, 
 J. Tomasi, M. Cossi, J. M. Millam, M. Klene, C. Adamo, R. Cammi, 
 J. W. Ochterski, R. L. Martin, K. Morokuma, O. Farkas, 
 J. B. Foresman, and D. J. Fox, Gaussian, Inc., Wallingford CT, 2018.
 
 *******************************************
 Gaussian DV:  ES64L-GDVRevI.14+ 23-Jun-2018
                 13-May-2020 
 *******************************************
 %chk=cis.chk
 ----------------------------------------------------------------------
 #P hf/sto-3g CIS(NStates=3,Root=2,AllTransitionDensities) density=curr
 ent nosymm iop(6/8=1,5/72=-3,3/33=3,3/36=1,4/33=3,5/33=3,6/33=3,9/33=3
 )
 ----------------------------------------------------------------------
 1/30=1,38=1,172=1/1;
 2/12=2,15=1,17=6,18=5,40=1/2;
 3/6=3,11=9,25=1,30=1,33=3,36=1,71=1/1,2,3,8;
 4/33=3/1;
 5/5=2,33=3,38=5,72=-3/2;
 8/6=1,10=1,107=2,108=3/1;
 9/8=2,15=1,33=3,41=3,42=1,44=3/14;
 10/5=4,13=10,28=2,31=1/2;
 6/7=2,8=1,9=2,10=2,22=-1,33=3/1;
 99/5=1,9=1/99;
 Leave Link    1 at Wed May 13 12:33:57 2020, MaxMem=           0 cpu:               1.0 elap:               0.1
 (Enter /opt/gaussian/gdv-20180628-i14+/gdv/l101.exe)
 ----------------------------------------------------------------------
 Preliminary CIS calculation to determine density matrices and calculat
 e dipole moment matrices in the CI-state basis
 ----------------------------------------------------------------------
 Symbolic Z-matrix:
 Charge =  0 Multiplicity = 1
 C                     0.        0.        0.6695 
 C                     0.        0.       -0.6695 
 H                     0.        0.9289    1.2321 
 H                     0.       -0.9289    1.2321 
 H                     0.        0.9289   -1.2321 
 H                     0.       -0.9289   -1.2321 
 
 ITRead=  0  0  0  0  0  0
 MicOpt= -1 -1 -1 -1 -1 -1
 NAtoms=      6 NQM=        6 NQMF=       0 NMMI=      0 NMMIF=      0
                NMic=       0 NMicF=      0.
                    Isotopes and Nuclear Properties:
 (Nuclear quadrupole moments (NQMom) in fm**2, nuclear magnetic moments (NMagM)
  in nuclear magnetons)

  Atom         1           2           3           4           5           6
 IAtWgt=          12          12           1           1           1           1
 AtmWgt=  12.0000000  12.0000000   1.0078250   1.0078250   1.0078250   1.0078250
 NucSpn=           0           0           1           1           1           1
 AtZEff=  -0.0000000  -0.0000000  -0.0000000  -0.0000000  -0.0000000  -0.0000000
 NQMom=    0.0000000   0.0000000   0.0000000   0.0000000   0.0000000   0.0000000
 NMagM=    0.0000000   0.0000000   2.7928460   2.7928460   2.7928460   2.7928460
 AtZNuc=   6.0000000   6.0000000   1.0000000   1.0000000   1.0000000   1.0000000
 Leave Link  101 at Wed May 13 12:33:57 2020, MaxMem=  4294967296 cpu:               1.4 elap:               0.1
 (Enter /opt/gaussian/gdv-20180628-i14+/gdv/l202.exe)
                          Input orientation:                          
 ---------------------------------------------------------------------
 Center     Atomic      Atomic             Coordinates (Angstroms)
 Number     Number       Type             X           Y           Z
 ---------------------------------------------------------------------
      1          6           0        0.000000    0.000000    0.669500
      2          6           0        0.000000    0.000000   -0.669500
      3          1           0        0.000000    0.928900    1.232100
      4          1           0        0.000000   -0.928900    1.232100
      5          1           0        0.000000    0.928900   -1.232100
      6          1           0        0.000000   -0.928900   -1.232100
 ---------------------------------------------------------------------
                    Distance matrix (angstroms):
                    1          2          3          4          5
     1  C    0.000000
     2  C    1.339000   0.000000
     3  H    1.085990   2.116350   0.000000
     4  H    1.085990   2.116350   1.857800   0.000000
     5  H    2.116350   1.085990   2.464200   3.086050   0.000000
     6  H    2.116350   1.085990   3.086050   2.464200   1.857800
                    6
     6  H    0.000000
 Symmetry turned off by external request.
 Stoichiometry    C2H4
 Framework group  D2H[C2"(C.C),SG(H4)]
 Deg. of freedom     3
 Full point group                 D2H     NOp   8
 Rotational constants (GHZ):         145.2894700          29.9442628          24.8273321
 Leave Link  202 at Wed May 13 12:33:57 2020, MaxMem=  4294967296 cpu:               0.1 elap:               0.0
 (Enter /opt/gaussian/gdv-20180628-i14+/gdv/l301.exe)
 Standard basis: STO-3G (5D, 7F)
                         Coordinates in L301:                         
 ---------------------------------------------------------------------
 Center     Atomic      Atomic             Coordinates (Angstroms)
 Number     Number       Type             X           Y           Z
 ---------------------------------------------------------------------
      1          6           0        0.000000    0.000000    0.669500
      2          6           0        0.000000    0.000000   -0.669500
      3          1           0        0.000000    0.928900    1.232100
      4          1           0        0.000000   -0.928900    1.232100
      5          1           0        0.000000    0.928900   -1.232100
      6          1           0        0.000000   -0.928900   -1.232100
 ---------------------------------------------------------------------
 FixB: optimizing general contractions.
 Ernie: Thresh=  0.10000D-02 Tol=  0.10000D-05 Strict=F.
 IA=     1 ShT= 0 ShC= 0 NL=   1 NS=   0.
         I=   1 JX=   3 NP=   3
 IA=     1 L=0 SC=0 ISt=    0 NBk=    0 NP=    0 IndPr=    0.
 IA=     1 ShT= 1 ShC= 0 NL=   1 NS=   0.
         I=   1 JX=   3 NP=   3
 IA=     1 L=1 SC=0 ISt=    0 NBk=    0 NP=    0 IndPr=    0.
 IA=     2 ShT= 0 ShC= 0 NL=   1 NS=   0.
         I=   1 JX=   3 NP=   3
 IA=     2 L=0 SC=0 ISt=    0 NBk=    0 NP=    0 IndPr=    0.
 IA=     2 ShT= 1 ShC= 0 NL=   1 NS=   0.
         I=   1 JX=   3 NP=   3
 IA=     2 L=1 SC=0 ISt=    0 NBk=    0 NP=    0 IndPr=    0.
 IA=     3 ShT= 0 ShC= 0 NL=   1 NS=   0.
         I=   1 JX=   3 NP=   3
 IA=     3 L=0 SC=0 ISt=    0 NBk=    0 NP=    0 IndPr=    0.
 IA=     4 ShT= 0 ShC= 0 NL=   1 NS=   0.
         I=   1 JX=   3 NP=   3
 IA=     4 L=0 SC=0 ISt=    0 NBk=    0 NP=    0 IndPr=    0.
 IA=     5 ShT= 0 ShC= 0 NL=   1 NS=   0.
         I=   1 JX=   3 NP=   3
 IA=     5 L=0 SC=0 ISt=    0 NBk=    0 NP=    0 IndPr=    0.
 IA=     6 ShT= 0 ShC= 0 NL=   1 NS=   0.
         I=   1 JX=   3 NP=   3
 IA=     6 L=0 SC=0 ISt=    0 NBk=    0 NP=    0 IndPr=    0.
 Electric field displacement of shell     1 is  0.00D+00
 Electric field displacement of shell     2 is  0.00D+00
 Electric field displacement of shell     3 is  0.00D+00
 Electric field displacement of shell     4 is  0.00D+00
 Electric field displacement of shell     5 is  0.00D+00
 Electric field displacement of shell     6 is  0.00D+00
 Electric field displacement of shell     7 is  0.00D+00
 Electric field displacement of shell     8 is  0.00D+00
 LdAtmC:  AtmChg=     6.000000     6.000000     1.000000     1.000000     1.000000
 LdAtmC:  AtmChg=     1.000000
 AtZEff=     -3.6000000     -3.6000000     -1.0000000     -1.0000000     -1.0000000
 AtZEff=     -1.0000000
    14 basis functions,    42 primitive gaussians,    14 cartesian basis functions
     8 alpha electrons        8 beta electrons
       nuclear repulsion energy        33.2650904812 Hartrees.
 IS=     1 IAt=     1 ISR=     1 T=0 IP=      1 IndIP=      1 IndIPD=      0 C=  2.707814D+00  0.000000D+00                             NZ=T
 IS=     1 IAt=     1 ISR=     1 T=0 IP=      2 IndIP=      2 IndIPD=      1 C=  2.618880D+00  0.000000D+00                             NZ=T
 IS=     1 IAt=     1 ISR=     1 T=0 IP=      3 IndIP=      3 IndIPD=      2 C=  8.161906D-01  0.000000D+00                             NZ=T
 IS=     2 IAt=     1 ISR=     2 T=1 IP=      1 IndIP=      4 IndIPD=      0 C= -1.600172D-01  8.560445D-01                             NZ=T
 IS=     2 IAt=     1 ISR=     2 T=1 IP=      2 IndIP=      5 IndIPD=      1 C=  2.140359D-01  5.383038D-01                             NZ=T
 IS=     2 IAt=     1 ISR=     2 T=1 IP=      3 IndIP=      6 IndIPD=      2 C=  1.615361D-01  8.527636D-02                             NZ=T
 IS=     3 IAt=     2 ISR=     1 T=0 IP=      1 IndIP=      7 IndIPD=      0 C=  2.707814D+00  0.000000D+00                             NZ=T
 IS=     3 IAt=     2 ISR=     1 T=0 IP=      2 IndIP=      8 IndIPD=      1 C=  2.618880D+00  0.000000D+00                             NZ=T
 IS=     3 IAt=     2 ISR=     1 T=0 IP=      3 IndIP=      9 IndIPD=      2 C=  8.161906D-01  0.000000D+00                             NZ=T
 IS=     4 IAt=     2 ISR=     2 T=1 IP=      1 IndIP=     10 IndIPD=      0 C= -1.600172D-01  8.560445D-01                             NZ=T
 IS=     4 IAt=     2 ISR=     2 T=1 IP=      2 IndIP=     11 IndIPD=      1 C=  2.140359D-01  5.383038D-01                             NZ=T
 IS=     4 IAt=     2 ISR=     2 T=1 IP=      3 IndIP=     12 IndIPD=      2 C=  1.615361D-01  8.527636D-02                             NZ=T
 IS=     5 IAt=     3 ISR=     1 T=0 IP=      1 IndIP=     13 IndIPD=      0 C=  2.769344D-01  0.000000D+00                             NZ=T
 IS=     5 IAt=     3 ISR=     1 T=0 IP=      2 IndIP=     14 IndIPD=      1 C=  2.678389D-01  0.000000D+00                             NZ=T
 IS=     5 IAt=     3 ISR=     1 T=0 IP=      3 IndIP=     15 IndIPD=      2 C=  8.347367D-02  0.000000D+00                             NZ=T
 IS=     6 IAt=     4 ISR=     1 T=0 IP=      1 IndIP=     16 IndIPD=      0 C=  2.769344D-01  0.000000D+00                             NZ=T
 IS=     6 IAt=     4 ISR=     1 T=0 IP=      2 IndIP=     17 IndIPD=      1 C=  2.678389D-01  0.000000D+00                             NZ=T
 IS=     6 IAt=     4 ISR=     1 T=0 IP=      3 IndIP=     18 IndIPD=      2 C=  8.347367D-02  0.000000D+00                             NZ=T
 IS=     7 IAt=     5 ISR=     1 T=0 IP=      1 IndIP=     19 IndIPD=      0 C=  2.769344D-01  0.000000D+00                             NZ=T
 IS=     7 IAt=     5 ISR=     1 T=0 IP=      2 IndIP=     20 IndIPD=      1 C=  2.678389D-01  0.000000D+00                             NZ=T
 IS=     7 IAt=     5 ISR=     1 T=0 IP=      3 IndIP=     21 IndIPD=      2 C=  8.347367D-02  0.000000D+00                             NZ=T
 IS=     8 IAt=     6 ISR=     1 T=0 IP=      1 IndIP=     22 IndIPD=      0 C=  2.769344D-01  0.000000D+00                             NZ=T
 IS=     8 IAt=     6 ISR=     1 T=0 IP=      2 IndIP=     23 IndIPD=      1 C=  2.678389D-01  0.000000D+00                             NZ=T
 IS=     8 IAt=     6 ISR=     1 T=0 IP=      3 IndIP=     24 IndIPD=      2 C=  8.347367D-02  0.000000D+00                             NZ=T
 IExCor=    0 DFT=F Ex=HF Corr=None ExCW=0 ScaHFX=  1.000000
 ScaDFX=  1.000000  1.000000  1.000000  1.000000
 IRadAn=      5 IRanWt=     -1 IRanGd=            0 ICorTp=0 IEmpDi=  4
 NAtoms=    6 NActive=    6 NUniq=    6 SFac= 1.00D+00 NAtFMM=   60 NAOKFM=F Big=F
 Integral buffers will be    131072 words long.
 Raffenetti 1 integral format.
 Two-electron integral symmetry is turned off.
 Pair potential:
 Leave Link  301 at Wed May 13 12:33:57 2020, MaxMem=  4294967296 cpu:               0.7 elap:               0.1
 (Enter /opt/gaussian/gdv-20180628-i14+/gdv/l302.exe)
 GetPMM: IRwPM=  824 LRwPM=    0 LPMAll=    2
 GetPCM: File not found, return IValue=0.
 NPDir=0 NMtPBC=     1 NCelOv=     1 NCel=       1 NClECP=     1 NCelD=      1
         NCelK=      1 NCelE2=     1 NClLst=     1 CellRange=     0.0.
 One-electron integrals computed using PRISM.
 Entering OneElI...
 OneElI was handed  4294966997 working-precision words.
 Calculate overlap and kinetic energy integrals
    NBasis =  14  MinDer = 0  MaxDer = 0
 Requested accuracy = 0.1000D-12
 ShPair: Thresh= 1.00D-13 NBox=     0 BxSize= 0.00D+00 RnKept= 5.83D+00
         NSMCal=                   36 NSMKep=                  36
 PrmmSu-InSpLW:  IPartL=    0 NPrtUS=   12 NPrtUL=    1 DoSpLW=F IThBeg=    0 IThEnd=   11 NThAct=   12.
 PrSmSu:  IncTry=   512 NBBP=             36 NTPThr=   100 NPartT=   12 Incr=           1 LDynOK=F GPUOK=F.
 PrsmSu:  NPrtUS=  12 ThrOK=T IAlg=1 LenDen=           0 ISkipM=0 DoSpLW=F IThBeg=    0 IThEnd=   11.
 Prism:   IPart=     0 DynPar=F LinDyn=F Incr=           1.
 PRISM was handed   357910183 working-precision words and    36 shell-pairs
 PRISM was handed   357910183 working-precision words and    36 shell-pairs
 PRISM was handed   357910183 working-precision words and    36 shell-pairs
 PRISM was handed   357910183 working-precision words and    36 shell-pairs
 PRISM was handed   357910183 working-precision words and    36 shell-pairs
 PRISM was handed   357910183 working-precision words and    36 shell-pairs
 PRISM was handed   357910183 working-precision words and    36 shell-pairs
 PRISM was handed   357910183 working-precision words and    36 shell-pairs
 PRISM was handed   357910183 working-precision words and    36 shell-pairs
 PRISM was handed   357910183 working-precision words and    36 shell-pairs
 PRISM was handed   357910183 working-precision words and    36 shell-pairs
 PRISM was handed   357910183 working-precision words and    36 shell-pairs
 IPart= 10 NShTot=           2 NBatch=           2 AvBLen=         1.0
 IPart=  6 NShTot=           2 NBatch=           2 AvBLen=         1.0
 PrsmSu-ThDecC:  IPartSL=   10    0 NPrtUSL=   12    1 IThBeg=    0 IThEnd=   11 CPU=   -1 GPU=   -1 NThAct=   12.
 PrsmSu-ThDecC:  IPartSL=    6    0 NPrtUSL=   12    1 IThBeg=    0 IThEnd=   11 CPU=   -1 GPU=   -1 NThAct=   11.
 IPart=  7 NShTot=           2 NBatch=           2 AvBLen=         1.0
 IPart=  9 NShTot=           2 NBatch=           2 AvBLen=         1.0
 PrsmSu-ThDecC:  IPartSL=    7    0 NPrtUSL=   12    1 IThBeg=    0 IThEnd=   11 CPU=   -1 GPU=   -1 NThAct=   10.
 PrsmSu-ThDecC:  IPartSL=    9    0 NPrtUSL=   12    1 IThBeg=    0 IThEnd=   11 CPU=   -1 GPU=   -1 NThAct=    9.
 IPart=  0 NShTot=           6 NBatch=           5 AvBLen=         1.2
 PrsmSu-ThDecC:  IPartSL=    0    0 NPrtUSL=   12    1 IThBeg=    0 IThEnd=   11 CPU=   -1 GPU=   -1 NThAct=    8.
 IPart=  3 NShTot=           3 NBatch=           3 AvBLen=         1.0
 PrsmSu-ThDecC:  IPartSL=    3    0 NPrtUSL=   12    1 IThBeg=    0 IThEnd=   11 CPU=   -1 GPU=   -1 NThAct=    7.
 IPart=  8 NShTot=           2 NBatch=           2 AvBLen=         1.0
 PrsmSu-ThDecC:  IPartSL=    8    0 NPrtUSL=   12    1 IThBeg=    0 IThEnd=   11 CPU=   -1 GPU=   -1 NThAct=    6.
 IPart=  2 NShTot=           4 NBatch=           4 AvBLen=         1.0
 PrsmSu-ThDecC:  IPartSL=    2    0 NPrtUSL=   12    1 IThBeg=    0 IThEnd=   11 CPU=   -1 GPU=   -1 NThAct=    5.
 IPart=  4 NShTot=           3 NBatch=           3 AvBLen=         1.0
 PrsmSu-ThDecC:  IPartSL=    4    0 NPrtUSL=   12    1 IThBeg=    0 IThEnd=   11 CPU=   -1 GPU=   -1 NThAct=    4.
 IPart=  1 NShTot=           5 NBatch=           4 AvBLen=         1.3
 PrsmSu-ThDecC:  IPartSL=    1    0 NPrtUSL=   12    1 IThBeg=    0 IThEnd=   11 CPU=   -1 GPU=   -1 NThAct=    3.
 IPart=  5 NShTot=           3 NBatch=           3 AvBLen=         1.0
 PrsmSu-ThDecC:  IPartSL=    5    0 NPrtUSL=   12    1 IThBeg=    0 IThEnd=   11 CPU=   -1 GPU=   -1 NThAct=    2.
 IPart= 11 NShTot=           2 NBatch=           2 AvBLen=         1.0
 PrsmSu-ThDecC:  IPartSL=   11    0 NPrtUSL=   12    1 IThBeg=    0 IThEnd=   11 CPU=   -1 GPU=   -1 NThAct=    1.
 PrSmSu:  NxtVal=             13.
 *** Overlap *** 
                1             2             3             4             5 
      1  0.100000D+01
      2  0.248362D+00  0.100000D+01
      3  0.000000D+00  0.000000D+00  0.100000D+01
      4  0.000000D+00  0.000000D+00  0.000000D+00  0.100000D+01
      5  0.000000D+00  0.000000D+00  0.000000D+00  0.000000D+00  0.100000D+01
      6  0.244717D-05  0.433680D-01  0.000000D+00  0.000000D+00 -0.719279D-01
      7  0.433680D-01  0.395890D+00  0.000000D+00  0.000000D+00 -0.409664D+00
      8  0.000000D+00  0.000000D+00  0.237690D+00  0.000000D+00  0.000000D+00
      9  0.000000D+00  0.000000D+00  0.000000D+00  0.237690D+00  0.000000D+00
     10  0.719279D-01  0.409664D+00  0.000000D+00  0.000000D+00 -0.328117D+00
     11  0.628613D-01  0.493064D+00  0.000000D+00  0.400857D+00  0.242784D+00
     12  0.628613D-01  0.493064D+00  0.000000D+00 -0.400857D+00  0.242784D+00
     13  0.598748D-02  0.104502D+00  0.000000D+00  0.586232D-01 -0.120011D+00
     14  0.598748D-02  0.104502D+00  0.000000D+00 -0.586232D-01 -0.120011D+00
                6             7             8             9            10 
      6  0.100000D+01
      7  0.248362D+00  0.100000D+01
      8  0.000000D+00  0.000000D+00  0.100000D+01
      9  0.000000D+00  0.000000D+00  0.000000D+00  0.100000D+01
     10  0.000000D+00  0.000000D+00  0.000000D+00  0.000000D+00  0.100000D+01
     11  0.598748D-02  0.104502D+00  0.000000D+00  0.586232D-01  0.120011D+00
     12  0.598748D-02  0.104502D+00  0.000000D+00 -0.586232D-01  0.120011D+00
     13  0.628613D-01  0.493064D+00  0.000000D+00  0.400857D+00 -0.242784D+00
     14  0.628613D-01  0.493064D+00  0.000000D+00 -0.400857D+00 -0.242784D+00
               11            12            13            14 
     11  0.100000D+01
     12  0.149885D+00  0.100000D+01
     13  0.529423D-01  0.152025D-01  0.100000D+01
     14  0.152025D-01  0.529423D-01  0.149885D+00  0.100000D+01
 *** Kinetic Energy *** 
                1             2             3             4             5 
      1  0.158911D+02
      2 -0.858900D-01  0.472250D+00
      3  0.000000D+00  0.000000D+00  0.147773D+01
      4  0.000000D+00  0.000000D+00  0.000000D+00  0.147773D+01
      5  0.000000D+00  0.000000D+00  0.000000D+00  0.000000D+00  0.147773D+01
      6 -0.850616D-04 -0.832011D-02  0.000000D+00  0.000000D+00  0.996585D-02
      7 -0.832011D-02  0.581524D-01  0.000000D+00  0.000000D+00 -0.171391D+00
      8  0.000000D+00  0.000000D+00  0.917998D-01  0.000000D+00  0.000000D+00
      9  0.000000D+00  0.000000D+00  0.000000D+00  0.917998D-01  0.000000D+00
     10 -0.996585D-02  0.171391D+00  0.000000D+00  0.000000D+00 -0.345385D+00
     11 -0.103811D-01  0.108175D+00  0.000000D+00  0.225511D+00  0.136584D+00
     12 -0.103811D-01  0.108175D+00  0.000000D+00 -0.225511D+00  0.136584D+00
     13 -0.242597D-02 -0.147268D-01  0.000000D+00  0.503512D-03 -0.103077D-02
     14 -0.242597D-02 -0.147268D-01  0.000000D+00 -0.503512D-03 -0.103077D-02
                6             7             8             9            10 
      6  0.158911D+02
      7 -0.858900D-01  0.472250D+00
      8  0.000000D+00  0.000000D+00  0.147773D+01
      9  0.000000D+00  0.000000D+00  0.000000D+00  0.147773D+01
     10  0.000000D+00  0.000000D+00  0.000000D+00  0.000000D+00  0.147773D+01
     11 -0.242597D-02 -0.147268D-01  0.000000D+00  0.503512D-03  0.103077D-02
     12 -0.242597D-02 -0.147268D-01  0.000000D+00 -0.503512D-03  0.103077D-02
     13 -0.103811D-01  0.108175D+00  0.000000D+00  0.225511D+00 -0.136584D+00
     14 -0.103811D-01  0.108175D+00  0.000000D+00 -0.225511D+00 -0.136584D+00
               11            12            13            14 
     11  0.760032D+00
     12 -0.767305D-02  0.760032D+00
     13 -0.108650D-01 -0.591913D-02  0.760032D+00
     14 -0.591913D-02 -0.108650D-01 -0.767305D-02  0.760032D+00
 Entering OneElI...
 OneElI was handed  4294966997 working-precision words.
 Calculate potential energy integrals
    NBasis =  14  MinDer = 0  MaxDer = 0
 Requested accuracy = 0.1000D-12
 ShPair: Thresh= 1.00D-13 NBox=     0 BxSize= 0.00D+00 RnKept= 5.83D+00
         NSMCal=                   36 NSMKep=                  36
 PrmmSu-InSpLW:  IPartL=    0 NPrtUS=   12 NPrtUL=    1 DoSpLW=F IThBeg=    0 IThEnd=   11 NThAct=   12.
 PrSmSu:  IncTry=   512 NBBP=            216 NTPThr=   100 NPartT=   12 Incr=           1 LDynOK=F GPUOK=F.
 PrsmSu:  NPrtUS=  12 ThrOK=T IAlg=1 LenDen=           0 ISkipM=0 DoSpLW=F IThBeg=    0 IThEnd=   11.
 Prism:   IPart=     0 DynPar=F LinDyn=F Incr=           1.
 PRISM was handed   357910269 working-precision words and    36 shell-pairs
 PRISM was handed   357910269 working-precision words and    36 shell-pairs
 PRISM was handed   357910269 working-precision words and    36 shell-pairs
 PRISM was handed   357910269 working-precision words and    36 shell-pairs
 PRISM was handed   357910269 working-precision words and    36 shell-pairs
 PRISM was handed   357910269 working-precision words and    36 shell-pairs
 PRISM was handed   357910269 working-precision words and    36 shell-pairs
 PRISM was handed   357910269 working-precision words and    36 shell-pairs
 PRISM was handed   357910269 working-precision words and    36 shell-pairs
 PRISM was handed   357910269 working-precision words and    36 shell-pairs
 PRISM was handed   357910269 working-precision words and    36 shell-pairs
 PRISM was handed   357910269 working-precision words and    36 shell-pairs
 IPart=  6 NShTot=          12 NBatch=           2 AvBLen=         6.0
 PrsmSu-ThDecC:  IPartSL=    6    0 NPrtUSL=   12    1 IThBeg=    0 IThEnd=   11 CPU=   -1 GPU=   -1 NThAct=   12.
 IPart=  8 NShTot=          12 NBatch=           2 AvBLen=         6.0
 PrsmSu-ThDecC:  IPartSL=    8    0 NPrtUSL=   12    1 IThBeg=    0 IThEnd=   11 CPU=   -1 GPU=   -1 NThAct=   11.
 IPart= 11 NShTot=          12 NBatch=           2 AvBLen=         6.0
 PrsmSu-ThDecC:  IPartSL=   11    0 NPrtUSL=   12    1 IThBeg=    0 IThEnd=   11 CPU=   -1 GPU=   -1 NThAct=   10.
 IPart=  9 NShTot=          12 NBatch=           2 AvBLen=         6.0
 PrsmSu-ThDecC:  IPartSL=    9    0 NPrtUSL=   12    1 IThBeg=    0 IThEnd=   11 CPU=   -1 GPU=   -1 NThAct=    9.
 IPart=  2 NShTot=          30 NBatch=           5 AvBLen=         6.0
 PrsmSu-ThDecC:  IPartSL=    2    0 NPrtUSL=   12    1 IThBeg=    0 IThEnd=   11 CPU=   -1 GPU=   -1 NThAct=    8.
 IPart=  5 NShTot=          12 NBatch=           2 AvBLen=         6.0
 PrsmSu-ThDecC:  IPartSL=    5    0 NPrtUSL=   12    1 IThBeg=    0 IThEnd=   11 CPU=   -1 GPU=   -1 NThAct=    7.
 IPart= 10 NShTot=          12 NBatch=           2 AvBLen=         6.0
 PrsmSu-ThDecC:  IPartSL=   10    0 NPrtUSL=   12    1 IThBeg=    0 IThEnd=   11 CPU=   -1 GPU=   -1 NThAct=    6.
 IPart=  4 NShTot=          12 NBatch=           2 AvBLen=         6.0
 PrsmSu-ThDecC:  IPartSL=    4    0 NPrtUSL=   12    1 IThBeg=    0 IThEnd=   11 CPU=   -1 GPU=   -1 NThAct=    5.
 IPart=  3 NShTot=          24 NBatch=           4 AvBLen=         6.0
 PrsmSu-ThDecC:  IPartSL=    3    0 NPrtUSL=   12    1 IThBeg=    0 IThEnd=   11 CPU=   -1 GPU=   -1 NThAct=    4.
 IPart=  1 NShTot=          30 NBatch=           5 AvBLen=         6.0
 PrsmSu-ThDecC:  IPartSL=    1    0 NPrtUSL=   12    1 IThBeg=    0 IThEnd=   11 CPU=   -1 GPU=   -1 NThAct=    3.
 IPart=  7 NShTot=          12 NBatch=           2 AvBLen=         6.0
 PrsmSu-ThDecC:  IPartSL=    7    0 NPrtUSL=   12    1 IThBeg=    0 IThEnd=   11 CPU=   -1 GPU=   -1 NThAct=    2.
 IPart=  0 NShTot=          36 NBatch=           6 AvBLen=         6.0
 PrsmSu-ThDecC:  IPartSL=    0    0 NPrtUSL=   12    1 IThBeg=    0 IThEnd=   11 CPU=   -1 GPU=   -1 NThAct=    1.
 PrSmSu:  NxtVal=             13.
 ***** Potential Energy ***** 
                1             2             3             4             5 
      1  0.374986D+02
      2  0.514740D+01  0.898717D+01
      3  0.000000D+00  0.000000D+00  0.867846D+01
      4  0.000000D+00  0.000000D+00  0.000000D+00  0.887511D+01
      5 -0.577328D-01 -0.661959D+00  0.000000D+00  0.000000D+00  0.927694D+01
      6  0.265996D-04  0.917847D+00  0.000000D+00  0.000000D+00 -0.152452D+01
      7  0.917847D+00  0.359900D+01  0.000000D+00  0.000000D+00 -0.386740D+01
      8  0.000000D+00  0.000000D+00  0.185038D+01  0.000000D+00  0.000000D+00
      9  0.000000D+00  0.000000D+00  0.000000D+00  0.188069D+01  0.000000D+00
     10  0.152452D+01  0.386740D+01  0.000000D+00  0.000000D+00 -0.333598D+01
     11  0.132067D+01  0.373266D+01  0.000000D+00  0.283566D+01  0.153781D+01
     12  0.132067D+01  0.373266D+01  0.000000D+00 -0.283566D+01  0.153781D+01
     13  0.125617D+00  0.846263D+00  0.000000D+00  0.400766D+00 -0.992269D+00
     14  0.125617D+00  0.846263D+00  0.000000D+00 -0.400766D+00 -0.992269D+00
                6             7             8             9            10 
      6  0.374986D+02
      7  0.514740D+01  0.898717D+01
      8  0.000000D+00  0.000000D+00  0.867846D+01
      9  0.000000D+00  0.000000D+00  0.000000D+00  0.887511D+01
     10  0.577328D-01  0.661959D+00  0.000000D+00  0.000000D+00  0.927694D+01
     11  0.125617D+00  0.846263D+00  0.000000D+00  0.400766D+00  0.992269D+00
     12  0.125617D+00  0.846263D+00  0.000000D+00 -0.400766D+00  0.992269D+00
     13  0.132067D+01  0.373266D+01  0.000000D+00  0.283566D+01 -0.153781D+01
     14  0.132067D+01  0.373266D+01  0.000000D+00 -0.283566D+01 -0.153781D+01
               11            12            13            14 
     11  0.625701D+01
     12  0.103099D+01  0.625701D+01
     13  0.347919D+00  0.123214D+00  0.625701D+01
     14  0.123214D+00  0.347919D+00  0.103099D+01  0.625701D+01
 ****** Core Hamiltonian ****** 
                1             2             3             4             5 
      1 -0.216075D+02
      2 -0.523329D+01 -0.851492D+01
      3  0.000000D+00  0.000000D+00 -0.720073D+01
      4  0.000000D+00  0.000000D+00  0.000000D+00 -0.739738D+01
      5  0.577328D-01  0.661959D+00  0.000000D+00  0.000000D+00 -0.779921D+01
      6 -0.111661D-03 -0.926167D+00  0.000000D+00  0.000000D+00  0.153449D+01
      7 -0.926167D+00 -0.354084D+01  0.000000D+00  0.000000D+00  0.369601D+01
      8  0.000000D+00  0.000000D+00 -0.175858D+01  0.000000D+00  0.000000D+00
      9  0.000000D+00  0.000000D+00  0.000000D+00 -0.178889D+01  0.000000D+00
     10 -0.153449D+01 -0.369601D+01  0.000000D+00  0.000000D+00  0.299060D+01
     11 -0.133105D+01 -0.362448D+01  0.000000D+00 -0.261015D+01 -0.140123D+01
     12 -0.133105D+01 -0.362448D+01  0.000000D+00  0.261015D+01 -0.140123D+01
     13 -0.128043D+00 -0.860990D+00  0.000000D+00 -0.400263D+00  0.991238D+00
     14 -0.128043D+00 -0.860990D+00  0.000000D+00  0.400263D+00  0.991238D+00
                6             7             8             9            10 
      6 -0.216075D+02
      7 -0.523329D+01 -0.851492D+01
      8  0.000000D+00  0.000000D+00 -0.720073D+01
      9  0.000000D+00  0.000000D+00  0.000000D+00 -0.739738D+01
     10 -0.577328D-01 -0.661959D+00  0.000000D+00  0.000000D+00 -0.779921D+01
     11 -0.128043D+00 -0.860990D+00  0.000000D+00 -0.400263D+00 -0.991238D+00
     12 -0.128043D+00 -0.860990D+00  0.000000D+00  0.400263D+00 -0.991238D+00
     13 -0.133105D+01 -0.362448D+01  0.000000D+00 -0.261015D+01  0.140123D+01
     14 -0.133105D+01 -0.362448D+01  0.000000D+00  0.261015D+01  0.140123D+01
               11            12            13            14 
     11 -0.549697D+01
     12 -0.103867D+01 -0.549697D+01
     13 -0.358784D+00 -0.129133D+00 -0.549697D+01
     14 -0.129133D+00 -0.358784D+00 -0.103867D+01 -0.549697D+01
 SSO for IR=          1
                 1             2             3             4             5 
      1   0.100000D+01  0.248362D+00  0.000000D+00  0.000000D+00  0.000000D+00
      2   0.248362D+00  0.100000D+01  0.000000D+00  0.000000D+00  0.000000D+00
      3   0.000000D+00  0.000000D+00  0.100000D+01  0.000000D+00  0.000000D+00
      4   0.000000D+00  0.000000D+00  0.000000D+00  0.100000D+01  0.000000D+00
      5   0.000000D+00  0.000000D+00  0.000000D+00  0.000000D+00  0.100000D+01
      6   0.244717D-05  0.433680D-01  0.000000D+00  0.000000D+00 -0.719279D-01
      7   0.433680D-01  0.395890D+00  0.000000D+00  0.000000D+00 -0.409664D+00
      8   0.000000D+00  0.000000D+00  0.237690D+00  0.000000D+00  0.000000D+00
      9   0.000000D+00  0.000000D+00  0.000000D+00  0.237690D+00  0.000000D+00
     10   0.719279D-01  0.409664D+00  0.000000D+00  0.000000D+00 -0.328117D+00
     11   0.628613D-01  0.493064D+00  0.000000D+00  0.400857D+00  0.242784D+00
     12   0.628613D-01  0.493064D+00  0.000000D+00 -0.400857D+00  0.242784D+00
     13   0.598748D-02  0.104502D+00  0.000000D+00  0.586232D-01 -0.120011D+00
     14   0.598748D-02  0.104502D+00  0.000000D+00 -0.586232D-01 -0.120011D+00
                 6             7             8             9            10 
      1   0.244717D-05  0.433680D-01  0.000000D+00  0.000000D+00  0.719279D-01
      2   0.433680D-01  0.395890D+00  0.000000D+00  0.000000D+00  0.409664D+00
      3   0.000000D+00  0.000000D+00  0.237690D+00  0.000000D+00  0.000000D+00
      4   0.000000D+00  0.000000D+00  0.000000D+00  0.237690D+00  0.000000D+00
      5  -0.719279D-01 -0.409664D+00  0.000000D+00  0.000000D+00 -0.328117D+00
      6   0.100000D+01  0.248362D+00  0.000000D+00  0.000000D+00  0.000000D+00
      7   0.248362D+00  0.100000D+01  0.000000D+00  0.000000D+00  0.000000D+00
      8   0.000000D+00  0.000000D+00  0.100000D+01  0.000000D+00  0.000000D+00
      9   0.000000D+00  0.000000D+00  0.000000D+00  0.100000D+01  0.000000D+00
     10   0.000000D+00  0.000000D+00  0.000000D+00  0.000000D+00  0.100000D+01
     11   0.598748D-02  0.104502D+00  0.000000D+00  0.586232D-01  0.120011D+00
     12   0.598748D-02  0.104502D+00  0.000000D+00 -0.586232D-01  0.120011D+00
     13   0.628613D-01  0.493064D+00  0.000000D+00  0.400857D+00 -0.242784D+00
     14   0.628613D-01  0.493064D+00  0.000000D+00 -0.400857D+00 -0.242784D+00
                11            12            13            14 
      1   0.628613D-01  0.628613D-01  0.598748D-02  0.598748D-02
      2   0.493064D+00  0.493064D+00  0.104502D+00  0.104502D+00
      3   0.000000D+00  0.000000D+00  0.000000D+00  0.000000D+00
      4   0.400857D+00 -0.400857D+00  0.586232D-01 -0.586232D-01
      5   0.242784D+00  0.242784D+00 -0.120011D+00 -0.120011D+00
      6   0.598748D-02  0.598748D-02  0.628613D-01  0.628613D-01
      7   0.104502D+00  0.104502D+00  0.493064D+00  0.493064D+00
      8   0.000000D+00  0.000000D+00  0.000000D+00  0.000000D+00
      9   0.586232D-01 -0.586232D-01  0.400857D+00 -0.400857D+00
     10   0.120011D+00  0.120011D+00 -0.242784D+00 -0.242784D+00
     11   0.100000D+01  0.149885D+00  0.529423D-01  0.152025D-01
     12   0.149885D+00  0.100000D+01  0.152025D-01  0.529423D-01
     13   0.529423D-01  0.152025D-01  0.100000D+01  0.149885D+00
     14   0.152025D-01  0.529423D-01  0.149885D+00  0.100000D+01
 SVDSVc IOpt=   1 NormSV=T IR=1
 SVDSVc V= 2.27D+00 1.86D+00 1.74D+00 1.45D+00 1.27D+00 1.24D+00 9.76D-01 9.41D-01 7.62D-01 3.90D-01
 SVDSVc V= 3.28D-01 3.03D-01 2.82D-01 1.92D-01
 V for IR=          1
                 1             2             3             4             5 
      1   0.161710D+00  0.157252D+00  0.000000D+00 -0.544900D-01  0.000000D+00
      2   0.527227D+00  0.349629D+00  0.000000D+00 -0.358330D-01  0.000000D+00
      3   0.000000D+00  0.000000D+00  0.000000D+00  0.000000D+00  0.000000D+00
      4   0.000000D+00  0.000000D+00  0.561234D+00  0.000000D+00  0.486916D+00
      5  -0.165666D+00  0.340258D+00  0.000000D+00  0.626891D+00  0.000000D+00
      6   0.161710D+00 -0.157252D+00  0.000000D+00 -0.544900D-01  0.000000D+00
      7   0.527227D+00 -0.349629D+00  0.000000D+00 -0.358330D-01  0.000000D+00
      8   0.000000D+00  0.000000D+00  0.000000D+00  0.000000D+00  0.000000D+00
      9   0.000000D+00  0.000000D+00  0.561234D+00  0.000000D+00 -0.486916D+00
     10   0.165666D+00  0.340258D+00  0.000000D+00 -0.626891D+00  0.000000D+00
     11   0.290204D+00  0.344424D+00  0.304152D+00  0.226665D+00  0.362569D+00
     12   0.290204D+00  0.344424D+00 -0.304152D+00  0.226665D+00 -0.362569D+00
     13   0.290204D+00 -0.344424D+00  0.304152D+00  0.226665D+00 -0.362569D+00
     14   0.290204D+00 -0.344424D+00 -0.304152D+00  0.226665D+00  0.362569D+00
                 6             7             8             9            10 
      1   0.000000D+00  0.679823D+00  0.678540D+00  0.000000D+00  0.000000D+00
      2   0.000000D+00  0.212728D-01 -0.582402D-01  0.000000D+00  0.000000D+00
      3   0.707107D+00  0.000000D+00  0.000000D+00  0.707107D+00  0.000000D+00
      4   0.000000D+00  0.000000D+00  0.000000D+00  0.000000D+00  0.430136D+00
      5   0.000000D+00 -0.947667D-01  0.127738D+00  0.000000D+00  0.000000D+00
      6   0.000000D+00 -0.679823D+00  0.678540D+00  0.000000D+00  0.000000D+00
      7   0.000000D+00 -0.212728D-01 -0.582402D-01  0.000000D+00  0.000000D+00
      8   0.707107D+00  0.000000D+00  0.000000D+00 -0.707107D+00  0.000000D+00
      9   0.000000D+00  0.000000D+00  0.000000D+00  0.000000D+00  0.430136D+00
     10   0.000000D+00 -0.947667D-01 -0.127738D+00  0.000000D+00  0.000000D+00
     11   0.000000D+00 -0.119179D+00 -0.996871D-01  0.000000D+00 -0.396852D+00
     12   0.000000D+00 -0.119179D+00 -0.996871D-01  0.000000D+00  0.396852D+00
     13   0.000000D+00  0.119179D+00 -0.996871D-01  0.000000D+00 -0.396852D+00
     14   0.000000D+00  0.119179D+00 -0.996871D-01  0.000000D+00  0.396852D+00
                11            12            13            14 
      1  -0.378903D-01  0.000000D+00 -0.102297D+00 -0.108058D+00
      2   0.108457D+00  0.000000D+00  0.466214D+00  0.604602D+00
      3   0.000000D+00  0.000000D+00  0.000000D+00  0.000000D+00
      4   0.000000D+00  0.512751D+00  0.000000D+00  0.000000D+00
      5   0.539468D+00  0.000000D+00  0.251486D+00 -0.290203D+00
      6   0.378903D-01  0.000000D+00 -0.102297D+00  0.108058D+00
      7  -0.108457D+00  0.000000D+00  0.466214D+00 -0.604602D+00
      8   0.000000D+00  0.000000D+00  0.000000D+00  0.000000D+00
      9   0.000000D+00 -0.512751D+00  0.000000D+00  0.000000D+00
     10   0.539468D+00  0.000000D+00 -0.251486D+00 -0.290203D+00
     11  -0.312870D+00 -0.344301D+00 -0.323214D+00 -0.138855D+00
     12  -0.312870D+00  0.344301D+00 -0.323214D+00 -0.138855D+00
     13   0.312870D+00  0.344301D+00 -0.323214D+00  0.138855D+00
     14   0.312870D+00 -0.344301D+00 -0.323214D+00  0.138855D+00
 Vt*S*V: 
                1             2             3             4             5 
      1  0.100000D+01
      2  0.000000D+00  0.100000D+01
      3  0.000000D+00  0.000000D+00  0.100000D+01
      4  0.000000D+00  0.000000D+00  0.000000D+00  0.100000D+01
      5  0.000000D+00  0.000000D+00  0.000000D+00  0.000000D+00  0.100000D+01
      6  0.000000D+00  0.000000D+00  0.000000D+00  0.000000D+00  0.000000D+00
      7  0.000000D+00  0.000000D+00  0.000000D+00  0.000000D+00  0.000000D+00
      8  0.000000D+00  0.000000D+00  0.000000D+00  0.000000D+00  0.000000D+00
      9  0.000000D+00  0.000000D+00  0.000000D+00  0.000000D+00  0.000000D+00
     10  0.000000D+00  0.000000D+00  0.000000D+00  0.000000D+00  0.000000D+00
     11  0.000000D+00  0.000000D+00  0.000000D+00  0.000000D+00  0.000000D+00
     12  0.000000D+00  0.000000D+00  0.000000D+00  0.000000D+00  0.000000D+00
     13  0.000000D+00  0.000000D+00  0.000000D+00  0.000000D+00  0.000000D+00
     14  0.000000D+00  0.000000D+00  0.000000D+00  0.000000D+00  0.000000D+00
                6             7             8             9            10 
      6  0.100000D+01
      7  0.000000D+00  0.100000D+01
      8  0.000000D+00  0.000000D+00  0.100000D+01
      9  0.000000D+00  0.000000D+00  0.000000D+00  0.100000D+01
     10  0.000000D+00  0.000000D+00  0.000000D+00  0.000000D+00  0.100000D+01
     11  0.000000D+00  0.000000D+00  0.000000D+00  0.000000D+00  0.000000D+00
     12  0.000000D+00  0.000000D+00  0.000000D+00  0.000000D+00  0.000000D+00
     13  0.000000D+00  0.000000D+00  0.000000D+00  0.000000D+00  0.000000D+00
     14  0.000000D+00  0.000000D+00  0.000000D+00  0.000000D+00  0.000000D+00
               11            12            13            14 
     11  0.100000D+01
     12  0.000000D+00  0.100000D+01
     13  0.000000D+00  0.000000D+00  0.100000D+01
     14  0.000000D+00  0.000000D+00  0.000000D+00  0.100000D+01
 TstOVc:  Largest diagonal error= 2.78D-15 IB=1 I=    1.
 TstOVc:  Largest same sym error= 1.02D-15 IB=1 I=    6 J=    5.
 Orthogonalized basis functions: 
                 1             2             3             4             5 
      1   0.107285D+00  0.115286D+00  0.000000D+00 -0.453051D-01  0.000000D+00
      2   0.349784D+00  0.256323D+00  0.000000D+00 -0.297929D-01  0.000000D+00
      3   0.000000D+00  0.000000D+00  0.000000D+00  0.000000D+00  0.000000D+00
      4   0.000000D+00  0.000000D+00  0.425996D+00  0.000000D+00  0.431731D+00
      5  -0.109909D+00  0.249452D+00  0.000000D+00  0.521222D+00  0.000000D+00
      6   0.107285D+00 -0.115286D+00  0.000000D+00 -0.453051D-01  0.000000D+00
      7   0.349784D+00 -0.256323D+00  0.000000D+00 -0.297929D-01  0.000000D+00
      8   0.000000D+00  0.000000D+00  0.000000D+00  0.000000D+00  0.000000D+00
      9   0.000000D+00  0.000000D+00  0.425996D+00  0.000000D+00 -0.431731D+00
     10   0.109909D+00  0.249452D+00  0.000000D+00 -0.521222D+00  0.000000D+00
     11   0.192533D+00  0.252507D+00  0.230862D+00  0.188458D+00  0.321478D+00
     12   0.192533D+00  0.252507D+00 -0.230862D+00  0.188458D+00 -0.321478D+00
     13   0.192533D+00 -0.252507D+00  0.230862D+00  0.188458D+00 -0.321478D+00
     14   0.192533D+00 -0.252507D+00 -0.230862D+00  0.188458D+00  0.321478D+00
                 6             7             8             9            10 
      1   0.000000D+00  0.687974D+00  0.699417D+00  0.000000D+00  0.000000D+00
      2   0.000000D+00  0.215278D-01 -0.600321D-01  0.000000D+00  0.000000D+00
      3   0.635593D+00  0.000000D+00  0.000000D+00  0.809877D+00  0.000000D+00
      4   0.000000D+00  0.000000D+00  0.000000D+00  0.000000D+00  0.688912D+00
      5   0.000000D+00 -0.959029D-01  0.131668D+00  0.000000D+00  0.000000D+00
      6   0.000000D+00 -0.687974D+00  0.699417D+00  0.000000D+00  0.000000D+00
      7   0.000000D+00 -0.215278D-01 -0.600321D-01  0.000000D+00  0.000000D+00
      8   0.635593D+00  0.000000D+00  0.000000D+00 -0.809877D+00  0.000000D+00
      9   0.000000D+00  0.000000D+00  0.000000D+00  0.000000D+00  0.688912D+00
     10   0.000000D+00 -0.959029D-01 -0.131668D+00  0.000000D+00  0.000000D+00
     11   0.000000D+00 -0.120608D+00 -0.102754D+00  0.000000D+00 -0.635604D+00
     12   0.000000D+00 -0.120608D+00 -0.102754D+00  0.000000D+00  0.635604D+00
     13   0.000000D+00  0.120608D+00 -0.102754D+00  0.000000D+00 -0.635604D+00
     14   0.000000D+00  0.120608D+00 -0.102754D+00  0.000000D+00  0.635604D+00
                11            12            13            14 
      1  -0.661211D-01  0.000000D+00 -0.192519D+00 -0.246377D+00
      2   0.189266D+00  0.000000D+00  0.877398D+00  0.137852D+01
      3   0.000000D+00  0.000000D+00  0.000000D+00  0.000000D+00
      4   0.000000D+00  0.931961D+00  0.000000D+00  0.000000D+00
      5   0.941409D+00  0.000000D+00  0.473287D+00 -0.661674D+00
      6   0.661211D-01  0.000000D+00 -0.192519D+00  0.246377D+00
      7  -0.189266D+00  0.000000D+00  0.877398D+00 -0.137852D+01
      8   0.000000D+00  0.000000D+00  0.000000D+00  0.000000D+00
      9   0.000000D+00 -0.931961D+00  0.000000D+00  0.000000D+00
     10   0.941409D+00  0.000000D+00 -0.473287D+00 -0.661674D+00
     11  -0.545979D+00 -0.625792D+00 -0.608277D+00 -0.316596D+00
     12  -0.545979D+00  0.625792D+00 -0.608277D+00 -0.316596D+00
     13   0.545979D+00  0.625792D+00 -0.608277D+00  0.316596D+00
     14   0.545979D+00 -0.625792D+00 -0.608277D+00  0.316596D+00
 NBasis=    14 RedAO= T EigKep=  1.92D-01  NBF=    14
 NBsUse=    14 1.00D-06 EigRej= -1.00D+00 NBFU=    14
 Leave Link  302 at Wed May 13 12:33:57 2020, MaxMem=  4294967296 cpu:               1.2 elap:               0.1
 (Enter /opt/gaussian/gdv-20180628-i14+/gdv/l303.exe)
 GetPCM: File not found, return IValue=0.
 DipDrv:  MaxL=1.
 MemDpI: Int=      800000 Cav=           0 CFW=           0 Tot=      800000
 DipPsm:  J= 1 NJ= 4 MaxL=1 MMat= 4 MaxMat= 4.
 DipInt: DoE/N= T F RetVal/Mat= F T Init=T NMatP=  4 IDeriv=0 Min/MaxMlt=  0  1
 Entering OneElI...
 OneElI was handed  4294966875 working-precision words.
 Multipole integrals L=0 to 1 MinM= 0 MaxM= 3.
 Requested accuracy = 0.1000D-12
 ShPair: Thresh= 1.00D-13 NBox=     0 BxSize= 0.00D+00 RnKept= 5.83D+00
         NSMCal=                   36 NSMKep=                  36
 PrmmSu-InSpLW:  IPartL=    0 NPrtUS=    1 NPrtUL=    1 DoSpLW=F IThBeg=    0 IThEnd=    0 NThAct=    1.
 PrSmSu:  IncTry=   512 NBBP=             36 NTPThr=   100 NPartT=    1 Incr=           1 LDynOK=F GPUOK=F.
 PrsmSu:  NPrtUS=   1 ThrOK=F IAlg=2 LenDen=           0 ISkipM=0 DoSpLW=F IThBeg=    0 IThEnd=    0.
 Prism:   IPart=     0 DynPar=F LinDyn=F Incr=           1.
 PRISM was handed  4294960582 working-precision words and    36 shell-pairs
 IPart=  0 NShTot=          36 NBatch=           6 AvBLen=         6.0
 PrsmSu-ThDecC:  IPartSL=    0    0 NPrtUSL=    1    1 IThBeg=    0 IThEnd=    0 CPU=   -1 GPU=   -1 NThAct=    1.
 PrSmSu:  NxtVal=              2.
 Multipole matrices IBuc=  518 IX=    1 IJ=           1:
                1             2             3             4             5 
      1  0.000000D+00
      2  0.000000D+00  0.000000D+00
      3  0.718555D-01  0.838744D+00  0.000000D+00
      4  0.000000D+00  0.000000D+00  0.000000D+00  0.000000D+00
      5  0.000000D+00  0.000000D+00  0.000000D+00  0.000000D+00  0.000000D+00
      6  0.000000D+00  0.000000D+00  0.305241D-02  0.000000D+00  0.000000D+00
      7  0.000000D+00  0.000000D+00  0.292979D+00  0.000000D+00  0.000000D+00
      8  0.305241D-02  0.292979D+00  0.000000D+00  0.000000D+00 -0.300719D+00
      9  0.000000D+00  0.000000D+00  0.000000D+00  0.000000D+00  0.000000D+00
     10  0.000000D+00  0.000000D+00  0.300719D+00  0.000000D+00  0.000000D+00
     11  0.000000D+00  0.000000D+00  0.355307D+00  0.000000D+00  0.000000D+00
     12  0.000000D+00  0.000000D+00  0.355307D+00  0.000000D+00  0.000000D+00
     13  0.000000D+00  0.000000D+00  0.751597D-01  0.000000D+00  0.000000D+00
     14  0.000000D+00  0.000000D+00  0.751597D-01  0.000000D+00  0.000000D+00
                6             7             8             9            10 
      6  0.000000D+00
      7  0.000000D+00  0.000000D+00
      8  0.718555D-01  0.838744D+00  0.000000D+00
      9  0.000000D+00  0.000000D+00  0.000000D+00  0.000000D+00
     10  0.000000D+00  0.000000D+00  0.000000D+00  0.000000D+00  0.000000D+00
     11  0.000000D+00  0.000000D+00  0.751597D-01  0.000000D+00  0.000000D+00
     12  0.000000D+00  0.000000D+00  0.751597D-01  0.000000D+00  0.000000D+00
     13  0.000000D+00  0.000000D+00  0.355307D+00  0.000000D+00  0.000000D+00
     14  0.000000D+00  0.000000D+00  0.355307D+00  0.000000D+00  0.000000D+00
               11            12            13            14 
     11  0.000000D+00
     12  0.000000D+00  0.000000D+00
     13  0.000000D+00  0.000000D+00  0.000000D+00
     14  0.000000D+00  0.000000D+00  0.000000D+00  0.000000D+00
 Multipole matrices IBuc=  518 IX=    2 IJ=           1:
                1             2             3             4             5 
      1  0.000000D+00
      2  0.000000D+00  0.000000D+00
      3  0.000000D+00  0.000000D+00  0.000000D+00
      4  0.718555D-01  0.838744D+00  0.000000D+00  0.000000D+00
      5  0.000000D+00  0.000000D+00  0.000000D+00  0.000000D+00  0.000000D+00
      6  0.000000D+00  0.000000D+00  0.000000D+00  0.305241D-02  0.000000D+00
      7  0.000000D+00  0.000000D+00  0.000000D+00  0.292979D+00  0.000000D+00
      8  0.000000D+00  0.000000D+00  0.000000D+00  0.000000D+00  0.000000D+00
      9  0.305241D-02  0.292979D+00  0.000000D+00  0.000000D+00 -0.300719D+00
     10  0.000000D+00  0.000000D+00  0.000000D+00  0.300719D+00  0.000000D+00
     11  0.706673D-02  0.454071D+00  0.000000D+00  0.714942D+00  0.217818D+00
     12 -0.706673D-02 -0.454071D+00  0.000000D+00  0.714942D+00 -0.217818D+00
     13  0.372929D-03  0.872445D-01  0.000000D+00  0.123458D+00 -0.988737D-01
     14 -0.372929D-03 -0.872445D-01  0.000000D+00  0.123458D+00  0.988737D-01
                6             7             8             9            10 
      6  0.000000D+00
      7  0.000000D+00  0.000000D+00
      8  0.000000D+00  0.000000D+00  0.000000D+00
      9  0.718555D-01  0.838744D+00  0.000000D+00  0.000000D+00
     10  0.000000D+00  0.000000D+00  0.000000D+00  0.000000D+00  0.000000D+00
     11  0.372929D-03  0.872445D-01  0.000000D+00  0.123458D+00  0.988737D-01
     12 -0.372929D-03 -0.872445D-01  0.000000D+00  0.123458D+00 -0.988737D-01
     13  0.706673D-02  0.454071D+00  0.000000D+00  0.714942D+00 -0.217818D+00
     14 -0.706673D-02 -0.454071D+00  0.000000D+00  0.714942D+00  0.217818D+00
               11            12            13            14 
     11  0.175537D+01
     12  0.000000D+00 -0.175537D+01
     13  0.929331D-01  0.000000D+00  0.175537D+01
     14  0.000000D+00 -0.929331D-01  0.000000D+00 -0.175537D+01
 Multipole matrices IBuc=  518 IX=    3 IJ=           1:
                1             2             3             4             5 
      1  0.126517D+01
      2  0.314221D+00  0.126517D+01
      3  0.000000D+00  0.000000D+00  0.126517D+01
      4  0.000000D+00  0.000000D+00  0.000000D+00  0.126517D+01
      5  0.718555D-01  0.838744D+00  0.000000D+00  0.000000D+00  0.126517D+01
      6  0.000000D+00 -0.490823D-01  0.000000D+00  0.000000D+00  0.813421D-01
      7  0.490823D-01  0.000000D+00  0.000000D+00  0.000000D+00  0.244692D+00
      8  0.000000D+00  0.000000D+00  0.000000D+00  0.000000D+00  0.000000D+00
      9  0.000000D+00  0.000000D+00  0.000000D+00  0.000000D+00  0.000000D+00
     10  0.813421D-01  0.244692D+00  0.000000D+00  0.000000D+00  0.000000D+00
     11  0.838104D-01  0.898824D+00  0.000000D+00  0.724971D+00  0.794395D+00
     12  0.838104D-01  0.898824D+00  0.000000D+00 -0.724971D+00  0.794395D+00
     13  0.681175D-02 -0.463892D-01  0.000000D+00 -0.247053D-01  0.125735D+00
     14  0.681175D-02 -0.463892D-01  0.000000D+00  0.247053D-01  0.125735D+00
                6             7             8             9            10 
      6 -0.126517D+01
      7 -0.314221D+00 -0.126517D+01
      8  0.000000D+00  0.000000D+00 -0.126517D+01
      9  0.000000D+00  0.000000D+00  0.000000D+00 -0.126517D+01
     10  0.718555D-01  0.838744D+00  0.000000D+00  0.000000D+00 -0.126517D+01
     11 -0.681175D-02  0.463892D-01  0.000000D+00  0.247053D-01  0.125735D+00
     12 -0.681175D-02  0.463892D-01  0.000000D+00 -0.247053D-01  0.125735D+00
     13 -0.838104D-01 -0.898824D+00  0.000000D+00 -0.724971D+00  0.794395D+00
     14 -0.838104D-01 -0.898824D+00  0.000000D+00  0.724971D+00  0.794395D+00
               11            12            13            14 
     11  0.232833D+01
     12  0.348982D+00  0.232833D+01
     13  0.000000D+00  0.000000D+00 -0.232833D+01
     14  0.000000D+00  0.000000D+00 -0.348982D+00 -0.232833D+01
 ReDoC1: IPurDI=1 IPurFI=1 IPurDO=0 IPurFO=0.
 Fermi contact integrals: 
                 1             2             3             4             5 
      1   0.614289D+01  0.000000D+00  0.000000D+00  0.000000D+00  0.000000D+00
      2   0.215555D+00  0.416105D-01  0.753720D-01  0.753720D-01  0.461875D-02
      3   0.000000D+00  0.000000D+00  0.000000D+00  0.000000D+00  0.000000D+00
      4   0.000000D+00  0.000000D+00  0.111821D+00 -0.111821D+00  0.429342D-02
      5   0.000000D+00 -0.691154D-01  0.677259D-01  0.677259D-01 -0.878929D-02
      6   0.000000D+00  0.614289D+01  0.000000D+00  0.000000D+00  0.000000D+00
      7   0.416105D-01  0.215555D+00  0.461875D-02  0.461875D-02  0.753720D-01
      8   0.000000D+00  0.000000D+00  0.000000D+00  0.000000D+00  0.000000D+00
      9   0.000000D+00  0.000000D+00  0.429342D-02 -0.429342D-02  0.111821D+00
     10   0.691154D-01  0.000000D+00  0.878929D-02  0.878929D-02 -0.677259D-01
     11   0.603422D-01  0.561798D-02  0.628247D+00  0.105386D-01  0.214502D-02
     12   0.603422D-01  0.561798D-02  0.105386D-01  0.628247D+00  0.267617D-03
     13   0.561798D-02  0.603422D-01  0.214502D-02  0.267617D-03  0.628247D+00
     14   0.561798D-02  0.603422D-01  0.267617D-03  0.214502D-02  0.105386D-01
                 6 
      1   0.000000D+00
      2   0.461875D-02
      3   0.000000D+00
      4  -0.429342D-02
      5  -0.878929D-02
      6   0.000000D+00
      7   0.753720D-01
      8   0.000000D+00
      9  -0.111821D+00
     10  -0.677259D-01
     11   0.267617D-03
     12   0.214502D-02
     13   0.105386D-01
     14   0.628247D+00
 Leave Link  303 at Wed May 13 12:33:57 2020, MaxMem=  4294967296 cpu:               0.3 elap:               0.0
 (Enter /opt/gaussian/gdv-20180628-i14+/gdv/l308.exe)
 Dipole velocity integrals will be written to rwf   572.
 Entering OneElI...
 OneElI was handed  4294966036 working-precision words.
 Calculate R x Del and Del integrals.
    NBasis =    14  MinDer = 0  MaxDer = 0
 Requested accuracy = 0.1000D-12
 ShPair: Thresh= 1.00D-13 NBox=     0 BxSize= 0.00D+00 RnKept= 5.83D+00
         NSMCal=                   36 NSMKep=                  36
 PrmmSu-InSpLW:  IPartL=    0 NPrtUS=    1 NPrtUL=    1 DoSpLW=F IThBeg=    0 IThEnd=    0 NThAct=    1.
 PrSmSu:  IncTry=   512 NBBP=             36 NTPThr=   100 NPartT=    1 Incr=           1 LDynOK=F GPUOK=F.
 PrsmSu:  NPrtUS=   1 ThrOK=F IAlg=2 LenDen=           0 ISkipM=0 DoSpLW=F IThBeg=    0 IThEnd=    0.
 Prism:   IPart=     0 DynPar=F LinDyn=F Incr=           1.
 PRISM was handed  4294959505 working-precision words and    36 shell-pairs
 IPart=  0 NShTot=          36 NBatch=           6 AvBLen=         6.0
 PrsmSu-ThDecC:  IPartSL=    0    0 NPrtUSL=    1    1 IThBeg=    0 IThEnd=    0 CPU=   -1 GPU=   -1 NThAct=    1.
 PrSmSu:  NxtVal=              2.
 Dipole Velocity for IMat=    1:
                1             2             3             4             5 
      1  0.000000D+00
      2  0.000000D+00  0.000000D+00
      3 -0.781764D+00 -0.498712D+00  0.000000D+00
      4  0.000000D+00  0.000000D+00  0.000000D+00  0.000000D+00
      5  0.000000D+00  0.000000D+00  0.000000D+00  0.000000D+00  0.000000D+00
      6  0.000000D+00  0.000000D+00  0.284262D-01  0.000000D+00  0.000000D+00
      7  0.000000D+00  0.000000D+00  0.161900D+00  0.000000D+00  0.000000D+00
      8 -0.284262D-01 -0.161900D+00  0.000000D+00  0.000000D+00  0.223609D+00
      9  0.000000D+00  0.000000D+00  0.000000D+00  0.000000D+00  0.000000D+00
     10  0.000000D+00  0.000000D+00  0.223609D+00  0.000000D+00  0.000000D+00
     11  0.000000D+00  0.000000D+00  0.228361D+00  0.000000D+00  0.000000D+00
     12  0.000000D+00  0.000000D+00  0.228361D+00  0.000000D+00  0.000000D+00
     13  0.000000D+00  0.000000D+00  0.333966D-01  0.000000D+00  0.000000D+00
     14  0.000000D+00  0.000000D+00  0.333966D-01  0.000000D+00  0.000000D+00
                6             7             8             9            10 
      6  0.000000D+00
      7  0.000000D+00  0.000000D+00
      8 -0.781764D+00 -0.498712D+00  0.000000D+00
      9  0.000000D+00  0.000000D+00  0.000000D+00  0.000000D+00
     10  0.000000D+00  0.000000D+00  0.000000D+00  0.000000D+00  0.000000D+00
     11  0.000000D+00  0.000000D+00  0.333966D-01  0.000000D+00  0.000000D+00
     12  0.000000D+00  0.000000D+00  0.333966D-01  0.000000D+00  0.000000D+00
     13  0.000000D+00  0.000000D+00  0.228361D+00  0.000000D+00  0.000000D+00
     14  0.000000D+00  0.000000D+00  0.228361D+00  0.000000D+00  0.000000D+00
               11            12            13            14 
     11  0.000000D+00
     12  0.000000D+00  0.000000D+00
     13  0.000000D+00  0.000000D+00  0.000000D+00
     14  0.000000D+00  0.000000D+00  0.000000D+00  0.000000D+00
 Dipole Velocity for IMat=    2:
                1             2             3             4             5 
      1  0.000000D+00
      2  0.000000D+00  0.000000D+00
      3  0.000000D+00  0.000000D+00  0.000000D+00
      4 -0.781764D+00 -0.498712D+00  0.000000D+00  0.000000D+00
      5  0.000000D+00  0.000000D+00  0.000000D+00  0.000000D+00  0.000000D+00
      6  0.000000D+00  0.000000D+00  0.000000D+00  0.284262D-01  0.000000D+00
      7  0.000000D+00  0.000000D+00  0.000000D+00  0.161900D+00  0.000000D+00
      8  0.000000D+00  0.000000D+00  0.000000D+00  0.000000D+00  0.000000D+00
      9 -0.284262D-01 -0.161900D+00  0.000000D+00  0.000000D+00  0.223609D+00
     10  0.000000D+00  0.000000D+00  0.000000D+00  0.223609D+00  0.000000D+00
     11 -0.664373D-01 -0.260959D+00  0.000000D+00 -0.709210D-01 -0.181264D+00
     12  0.664373D-01  0.260959D+00  0.000000D+00 -0.709210D-01  0.181264D+00
     13 -0.347311D-02 -0.437758D-01  0.000000D+00  0.564560D-02  0.568105D-01
     14  0.347311D-02  0.437758D-01  0.000000D+00  0.564560D-02 -0.568105D-01
                6             7             8             9            10 
      6  0.000000D+00
      7  0.000000D+00  0.000000D+00
      8  0.000000D+00  0.000000D+00  0.000000D+00
      9 -0.781764D+00 -0.498712D+00  0.000000D+00  0.000000D+00
     10  0.000000D+00  0.000000D+00  0.000000D+00  0.000000D+00  0.000000D+00
     11 -0.347311D-02 -0.437758D-01  0.000000D+00  0.564560D-02 -0.568105D-01
     12  0.347311D-02  0.437758D-01  0.000000D+00  0.564560D-02  0.568105D-01
     13 -0.664373D-01 -0.260959D+00  0.000000D+00 -0.709210D-01  0.181264D+00
     14  0.664373D-01  0.260959D+00  0.000000D+00 -0.709210D-01 -0.181264D+00
               11            12            13            14 
     11  0.000000D+00
     12  0.125241D+00  0.000000D+00
     13  0.000000D+00 -0.104162D-01  0.000000D+00
     14  0.104162D-01  0.000000D+00  0.125241D+00  0.000000D+00
 Dipole Velocity for IMat=    3:
                1             2             3             4             5 
      1  0.000000D+00
      2  0.000000D+00  0.000000D+00
      3  0.000000D+00  0.000000D+00  0.000000D+00
      4  0.000000D+00  0.000000D+00  0.000000D+00  0.000000D+00
      5 -0.781764D+00 -0.498712D+00  0.000000D+00  0.000000D+00  0.000000D+00
      6  0.218956D-04  0.541120D-01  0.000000D+00  0.000000D+00 -0.907692D-01
      7  0.541120D-01  0.277128D+00  0.000000D+00  0.000000D+00 -0.185495D+00
      8  0.000000D+00  0.000000D+00  0.223609D+00  0.000000D+00  0.000000D+00
      9  0.000000D+00  0.000000D+00  0.000000D+00  0.223609D+00  0.000000D+00
     10  0.907692D-01  0.185495D+00  0.000000D+00  0.000000D+00  0.173520D-01
     11 -0.402386D-01 -0.158053D+00  0.000000D+00 -0.181264D+00  0.118576D+00
     12 -0.402386D-01 -0.158053D+00  0.000000D+00  0.181264D+00  0.118576D+00
     13  0.710998D-02  0.896158D-01  0.000000D+00  0.568105D-01 -0.829031D-01
     14  0.710998D-02  0.896158D-01  0.000000D+00 -0.568105D-01 -0.829031D-01
                6             7             8             9            10 
      6  0.000000D+00
      7  0.000000D+00  0.000000D+00
      8  0.000000D+00  0.000000D+00  0.000000D+00
      9  0.000000D+00  0.000000D+00  0.000000D+00  0.000000D+00
     10 -0.781764D+00 -0.498712D+00  0.000000D+00  0.000000D+00  0.000000D+00
     11 -0.710998D-02 -0.896158D-01  0.000000D+00 -0.568105D-01 -0.829031D-01
     12 -0.710998D-02 -0.896158D-01  0.000000D+00  0.568105D-01 -0.829031D-01
     13  0.402386D-01  0.158053D+00  0.000000D+00  0.181264D+00  0.118576D+00
     14  0.402386D-01  0.158053D+00  0.000000D+00 -0.181264D+00  0.118576D+00
               11            12            13            14 
     11  0.000000D+00
     12  0.000000D+00  0.000000D+00
     13  0.520776D-01  0.138162D-01  0.000000D+00
     14  0.138162D-01  0.520776D-01  0.000000D+00  0.000000D+00
 R x Del for IMat=    1:
                1             2             3             4             5 
      1  0.000000D+00
      2  0.000000D+00  0.000000D+00
      3  0.000000D+00  0.000000D+00  0.000000D+00
      4  0.989065D+00  0.630956D+00  0.000000D+00  0.000000D+00
      5  0.000000D+00  0.000000D+00  0.000000D+00 -0.100000D+01  0.000000D+00
      6  0.000000D+00  0.000000D+00  0.000000D+00  0.359640D-01  0.000000D+00
      7  0.000000D+00  0.000000D+00  0.000000D+00  0.204832D+00  0.000000D+00
      8  0.000000D+00  0.000000D+00  0.000000D+00  0.000000D+00  0.000000D+00
      9  0.359640D-01  0.204832D+00  0.000000D+00  0.000000D+00 -0.452131D-01
     10  0.000000D+00  0.000000D+00  0.000000D+00  0.452131D-01  0.000000D+00
     11  0.840546D-01  0.330159D+00  0.000000D+00 -0.153057D+00  0.630187D+00
     12 -0.840546D-01 -0.330159D+00  0.000000D+00 -0.153057D+00 -0.630187D+00
     13  0.439407D-02  0.553840D-01  0.000000D+00  0.112868D+00 -0.132518D-01
     14 -0.439407D-02 -0.553840D-01  0.000000D+00  0.112868D+00  0.132518D-01
                6             7             8             9            10 
      6  0.000000D+00
      7  0.000000D+00  0.000000D+00
      8  0.000000D+00  0.000000D+00  0.000000D+00
      9 -0.989065D+00 -0.630956D+00  0.000000D+00  0.000000D+00
     10  0.000000D+00  0.000000D+00  0.000000D+00 -0.100000D+01  0.000000D+00
     11 -0.439407D-02 -0.553840D-01  0.000000D+00 -0.112868D+00 -0.132518D-01
     12  0.439407D-02  0.553840D-01  0.000000D+00 -0.112868D+00  0.132518D-01
     13 -0.840546D-01 -0.330159D+00  0.000000D+00  0.153057D+00  0.630187D+00
     14  0.840546D-01  0.330159D+00  0.000000D+00  0.153057D+00 -0.630187D+00
               11            12            13            14 
     11  0.000000D+00
     12 -0.291603D+00  0.000000D+00
     13  0.914153D-01  0.000000D+00  0.000000D+00
     14  0.000000D+00 -0.914153D-01  0.291603D+00  0.000000D+00
 R x Del for IMat=    2:
                1             2             3             4             5 
      1  0.000000D+00
      2  0.000000D+00  0.000000D+00
      3 -0.989065D+00 -0.630956D+00  0.000000D+00
      4  0.000000D+00  0.000000D+00  0.000000D+00  0.000000D+00
      5  0.000000D+00  0.000000D+00  0.100000D+01  0.000000D+00  0.000000D+00
      6  0.000000D+00  0.000000D+00 -0.359640D-01  0.000000D+00  0.000000D+00
      7  0.000000D+00  0.000000D+00 -0.204832D+00  0.000000D+00  0.000000D+00
      8 -0.359640D-01 -0.204832D+00  0.000000D+00  0.000000D+00  0.452131D-01
      9  0.000000D+00  0.000000D+00  0.000000D+00  0.000000D+00  0.000000D+00
     10  0.000000D+00  0.000000D+00 -0.452131D-01  0.000000D+00  0.000000D+00
     11  0.000000D+00  0.000000D+00  0.531700D+00  0.000000D+00  0.000000D+00
     12  0.000000D+00  0.000000D+00  0.531700D+00  0.000000D+00  0.000000D+00
     13  0.000000D+00  0.000000D+00 -0.777583D-01  0.000000D+00  0.000000D+00
     14  0.000000D+00  0.000000D+00 -0.777583D-01  0.000000D+00  0.000000D+00
                6             7             8             9            10 
      6  0.000000D+00
      7  0.000000D+00  0.000000D+00
      8  0.989065D+00  0.630956D+00  0.000000D+00
      9  0.000000D+00  0.000000D+00  0.000000D+00  0.000000D+00
     10  0.000000D+00  0.000000D+00  0.100000D+01  0.000000D+00  0.000000D+00
     11  0.000000D+00  0.000000D+00  0.777583D-01  0.000000D+00  0.000000D+00
     12  0.000000D+00  0.000000D+00  0.777583D-01  0.000000D+00  0.000000D+00
     13  0.000000D+00  0.000000D+00 -0.531700D+00  0.000000D+00  0.000000D+00
     14  0.000000D+00  0.000000D+00 -0.531700D+00  0.000000D+00  0.000000D+00
               11            12            13            14 
     11  0.000000D+00
     12  0.000000D+00  0.000000D+00
     13  0.000000D+00  0.000000D+00  0.000000D+00
     14  0.000000D+00  0.000000D+00  0.000000D+00  0.000000D+00
 R x Del for IMat=    3:
                1             2             3             4             5 
      1  0.000000D+00
      2  0.000000D+00  0.000000D+00
      3  0.000000D+00  0.000000D+00  0.000000D+00
      4  0.000000D+00  0.000000D+00 -0.100000D+01  0.000000D+00
      5  0.000000D+00  0.000000D+00  0.000000D+00  0.000000D+00  0.000000D+00
      6  0.000000D+00  0.000000D+00  0.000000D+00  0.000000D+00  0.000000D+00
      7  0.000000D+00  0.000000D+00  0.000000D+00  0.000000D+00  0.000000D+00
      8  0.000000D+00  0.000000D+00  0.000000D+00  0.237690D+00  0.000000D+00
      9  0.000000D+00  0.000000D+00 -0.237690D+00  0.000000D+00  0.000000D+00
     10  0.000000D+00  0.000000D+00  0.000000D+00  0.000000D+00  0.000000D+00
     11  0.000000D+00  0.000000D+00 -0.400857D+00  0.000000D+00  0.000000D+00
     12  0.000000D+00  0.000000D+00  0.400857D+00  0.000000D+00  0.000000D+00
     13  0.000000D+00  0.000000D+00 -0.586232D-01  0.000000D+00  0.000000D+00
     14  0.000000D+00  0.000000D+00  0.586232D-01  0.000000D+00  0.000000D+00
                6             7             8             9            10 
      6  0.000000D+00
      7  0.000000D+00  0.000000D+00
      8  0.000000D+00  0.000000D+00  0.000000D+00
      9  0.000000D+00  0.000000D+00 -0.100000D+01  0.000000D+00
     10  0.000000D+00  0.000000D+00  0.000000D+00  0.000000D+00  0.000000D+00
     11  0.000000D+00  0.000000D+00 -0.586232D-01  0.000000D+00  0.000000D+00
     12  0.000000D+00  0.000000D+00  0.586232D-01  0.000000D+00  0.000000D+00
     13  0.000000D+00  0.000000D+00 -0.400857D+00  0.000000D+00  0.000000D+00
     14  0.000000D+00  0.000000D+00  0.400857D+00  0.000000D+00  0.000000D+00
               11            12            13            14 
     11  0.000000D+00
     12  0.000000D+00  0.000000D+00
     13  0.000000D+00  0.000000D+00  0.000000D+00
     14  0.000000D+00  0.000000D+00  0.000000D+00  0.000000D+00
< mu | del r + r del | nu > integrals: XX
                1             2             3             4             5 
      1  0.000000D+00
      2 -0.245934D+00  0.000000D+00
      3  0.000000D+00  0.000000D+00  0.000000D+00
      4  0.000000D+00  0.000000D+00  0.000000D+00  0.000000D+00
      5  0.000000D+00  0.000000D+00  0.000000D+00  0.000000D+00  0.000000D+00
      6  0.000000D+00  0.387950D-01  0.000000D+00  0.000000D+00 -0.618807D-01
      7 -0.387950D-01  0.000000D+00  0.000000D+00  0.000000D+00  0.381665D-01
      8  0.000000D+00  0.000000D+00  0.000000D+00  0.000000D+00  0.000000D+00
      9  0.000000D+00  0.000000D+00  0.000000D+00  0.000000D+00  0.000000D+00
     10 -0.618807D-01  0.381665D-01  0.000000D+00  0.000000D+00  0.000000D+00
     11 -0.548097D-01  0.242873D-01  0.000000D+00  0.889762D-02  0.538896D-02
     12 -0.548097D-01  0.242873D-01  0.000000D+00 -0.889762D-02  0.538896D-02
     13 -0.556258D-02 -0.509931D-02  0.000000D+00 -0.359406D-02  0.735758D-02
     14 -0.556258D-02 -0.509931D-02  0.000000D+00  0.359406D-02  0.735758D-02
                6             7             8             9            10 
      6  0.000000D+00
      7 -0.245934D+00  0.000000D+00
      8  0.000000D+00  0.000000D+00  0.000000D+00
      9  0.000000D+00  0.000000D+00  0.000000D+00  0.000000D+00
     10  0.000000D+00  0.000000D+00  0.000000D+00  0.000000D+00  0.000000D+00
     11 -0.556258D-02 -0.509931D-02  0.000000D+00 -0.359406D-02 -0.735758D-02
     12 -0.556258D-02 -0.509931D-02  0.000000D+00  0.359406D-02 -0.735758D-02
     13 -0.548097D-01  0.242873D-01  0.000000D+00  0.889762D-02 -0.538896D-02
     14 -0.548097D-01  0.242873D-01  0.000000D+00 -0.889762D-02 -0.538896D-02
               11            12            13            14 
     11  0.000000D+00
     12  0.000000D+00  0.000000D+00
     13  0.000000D+00  0.000000D+00  0.000000D+00
     14  0.000000D+00  0.000000D+00  0.000000D+00  0.000000D+00
< mu | del r + r del | nu > integrals: YY
                1             2             3             4             5 
      1  0.000000D+00
      2 -0.245934D+00  0.000000D+00
      3  0.000000D+00  0.000000D+00  0.000000D+00
      4  0.000000D+00  0.000000D+00  0.000000D+00  0.000000D+00
      5  0.000000D+00  0.000000D+00  0.000000D+00  0.000000D+00  0.000000D+00
      6  0.000000D+00  0.387950D-01  0.000000D+00  0.000000D+00 -0.618807D-01
      7 -0.387950D-01  0.000000D+00  0.000000D+00  0.000000D+00  0.381665D-01
      8  0.000000D+00  0.000000D+00  0.000000D+00  0.000000D+00  0.000000D+00
      9  0.000000D+00  0.000000D+00  0.000000D+00  0.000000D+00  0.000000D+00
     10 -0.618807D-01  0.381665D-01  0.000000D+00  0.000000D+00  0.000000D+00
     11 -0.753446D-01 -0.490289D+00  0.000000D+00 -0.529775D+00 -0.331643D+00
     12 -0.753446D-01 -0.490289D+00  0.000000D+00  0.529775D+00 -0.331643D+00
     13 -0.600789D-02 -0.823624D-01  0.000000D+00 -0.588969D-01  0.105856D+00
     14 -0.600789D-02 -0.823624D-01  0.000000D+00  0.588969D-01  0.105856D+00
                6             7             8             9            10 
      6  0.000000D+00
      7 -0.245934D+00  0.000000D+00
      8  0.000000D+00  0.000000D+00  0.000000D+00
      9  0.000000D+00  0.000000D+00  0.000000D+00  0.000000D+00
     10  0.000000D+00  0.000000D+00  0.000000D+00  0.000000D+00  0.000000D+00
     11 -0.600789D-02 -0.823624D-01  0.000000D+00 -0.588969D-01 -0.105856D+00
     12 -0.600789D-02 -0.823624D-01  0.000000D+00  0.588969D-01 -0.105856D+00
     13 -0.753446D-01 -0.490289D+00  0.000000D+00 -0.529775D+00  0.331643D+00
     14 -0.753446D-01 -0.490289D+00  0.000000D+00  0.529775D+00  0.331643D+00
               11            12            13            14 
     11  0.000000D+00
     12  0.000000D+00  0.000000D+00
     13  0.000000D+00  0.000000D+00  0.000000D+00
     14  0.000000D+00  0.000000D+00  0.000000D+00  0.000000D+00
< mu | del r + r del | nu > integrals: ZZ
                1             2             3             4             5 
      1  0.000000D+00
      2 -0.245934D+00  0.000000D+00
      3  0.000000D+00  0.000000D+00  0.000000D+00
      4  0.000000D+00  0.000000D+00  0.000000D+00  0.000000D+00
      5 -0.197813D+01 -0.126191D+01  0.000000D+00  0.000000D+00  0.000000D+00
      6  0.000000D+00 -0.809679D-01  0.000000D+00  0.000000D+00  0.134282D+00
      7  0.809679D-01  0.000000D+00  0.000000D+00  0.000000D+00  0.416901D+00
      8  0.000000D+00  0.000000D+00  0.000000D+00  0.000000D+00  0.000000D+00
      9  0.000000D+00  0.000000D+00  0.000000D+00  0.000000D+00  0.000000D+00
     10  0.134282D+00  0.416901D+00  0.000000D+00  0.000000D+00  0.000000D+00
     11 -0.164160D+00 -0.564403D+00  0.000000D+00 -0.653890D+00  0.192573D+00
     12 -0.164160D+00 -0.564403D+00  0.000000D+00  0.653890D+00  0.192573D+00
     13  0.105619D-01 -0.102137D+00  0.000000D+00 -0.614848D-01  0.225089D+00
     14  0.105619D-01 -0.102137D+00  0.000000D+00  0.614848D-01  0.225089D+00
                6             7             8             9            10 
      6  0.000000D+00
      7 -0.245934D+00  0.000000D+00
      8  0.000000D+00  0.000000D+00  0.000000D+00
      9  0.000000D+00  0.000000D+00  0.000000D+00  0.000000D+00
     10  0.197813D+01  0.126191D+01  0.000000D+00  0.000000D+00  0.000000D+00
     11  0.105619D-01 -0.102137D+00  0.000000D+00 -0.614848D-01 -0.225089D+00
     12  0.105619D-01 -0.102137D+00  0.000000D+00  0.614848D-01 -0.225089D+00
     13 -0.164160D+00 -0.564403D+00  0.000000D+00 -0.653890D+00 -0.192573D+00
     14 -0.164160D+00 -0.564403D+00  0.000000D+00  0.653890D+00 -0.192573D+00
               11            12            13            14 
     11  0.000000D+00
     12  0.000000D+00  0.000000D+00
     13  0.000000D+00  0.000000D+00  0.000000D+00
     14  0.000000D+00  0.000000D+00  0.000000D+00  0.000000D+00
< mu | del r + r del | nu > integrals: XY
                1             2             3             4             5 
      1  0.000000D+00
      2  0.000000D+00  0.000000D+00
      3  0.000000D+00  0.000000D+00  0.000000D+00
      4  0.000000D+00  0.000000D+00  0.000000D+00  0.000000D+00
      5  0.000000D+00  0.000000D+00  0.000000D+00  0.000000D+00  0.000000D+00
      6  0.000000D+00  0.000000D+00  0.000000D+00  0.000000D+00  0.000000D+00
      7  0.000000D+00  0.000000D+00  0.000000D+00  0.000000D+00  0.000000D+00
      8  0.000000D+00  0.000000D+00  0.000000D+00  0.000000D+00  0.000000D+00
      9  0.000000D+00  0.000000D+00  0.000000D+00  0.000000D+00  0.000000D+00
     10  0.000000D+00  0.000000D+00  0.000000D+00  0.000000D+00  0.000000D+00
     11  0.000000D+00  0.000000D+00  0.889762D-02  0.000000D+00  0.000000D+00
     12  0.000000D+00  0.000000D+00 -0.889762D-02  0.000000D+00  0.000000D+00
     13  0.000000D+00  0.000000D+00 -0.359406D-02  0.000000D+00  0.000000D+00
     14  0.000000D+00  0.000000D+00  0.359406D-02  0.000000D+00  0.000000D+00
                6             7             8             9            10 
      6  0.000000D+00
      7  0.000000D+00  0.000000D+00
      8  0.000000D+00  0.000000D+00  0.000000D+00
      9  0.000000D+00  0.000000D+00  0.000000D+00  0.000000D+00
     10  0.000000D+00  0.000000D+00  0.000000D+00  0.000000D+00  0.000000D+00
     11  0.000000D+00  0.000000D+00 -0.359406D-02  0.000000D+00  0.000000D+00
     12  0.000000D+00  0.000000D+00  0.359406D-02  0.000000D+00  0.000000D+00
     13  0.000000D+00  0.000000D+00  0.889762D-02  0.000000D+00  0.000000D+00
     14  0.000000D+00  0.000000D+00 -0.889762D-02  0.000000D+00  0.000000D+00
               11            12            13            14 
     11  0.000000D+00
     12  0.000000D+00  0.000000D+00
     13  0.000000D+00  0.000000D+00  0.000000D+00
     14  0.000000D+00  0.000000D+00  0.000000D+00  0.000000D+00
< mu | del r + r del | nu > integrals: XZ
                1             2             3             4             5 
      1  0.000000D+00
      2  0.000000D+00  0.000000D+00
      3 -0.989065D+00 -0.630956D+00  0.000000D+00
      4  0.000000D+00  0.000000D+00  0.000000D+00  0.000000D+00
      5  0.000000D+00  0.000000D+00  0.000000D+00  0.000000D+00  0.000000D+00
      6  0.000000D+00  0.000000D+00 -0.259167D-01  0.000000D+00  0.000000D+00
      7  0.000000D+00  0.000000D+00  0.242998D+00  0.000000D+00  0.000000D+00
      8 -0.259167D-01  0.242998D+00  0.000000D+00  0.000000D+00 -0.282904D+00
      9  0.000000D+00  0.000000D+00  0.000000D+00  0.000000D+00  0.000000D+00
     10  0.000000D+00  0.000000D+00  0.282904D+00  0.000000D+00  0.000000D+00
     11  0.000000D+00  0.000000D+00  0.294305D+00  0.000000D+00  0.000000D+00
     12  0.000000D+00  0.000000D+00  0.294305D+00  0.000000D+00  0.000000D+00
     13  0.000000D+00  0.000000D+00  0.496100D-01  0.000000D+00  0.000000D+00
     14  0.000000D+00  0.000000D+00  0.496100D-01  0.000000D+00  0.000000D+00
                6             7             8             9            10 
      6  0.000000D+00
      7  0.000000D+00  0.000000D+00
      8  0.989065D+00  0.630956D+00  0.000000D+00
      9  0.000000D+00  0.000000D+00  0.000000D+00  0.000000D+00
     10  0.000000D+00  0.000000D+00  0.000000D+00  0.000000D+00  0.000000D+00
     11  0.000000D+00  0.000000D+00 -0.496100D-01  0.000000D+00  0.000000D+00
     12  0.000000D+00  0.000000D+00 -0.496100D-01  0.000000D+00  0.000000D+00
     13  0.000000D+00  0.000000D+00 -0.294305D+00  0.000000D+00  0.000000D+00
     14  0.000000D+00  0.000000D+00 -0.294305D+00  0.000000D+00  0.000000D+00
               11            12            13            14 
     11  0.000000D+00
     12  0.000000D+00  0.000000D+00
     13  0.000000D+00  0.000000D+00  0.000000D+00
     14  0.000000D+00  0.000000D+00  0.000000D+00  0.000000D+00
< mu | del r + r del | nu > integrals: YZ
                1             2             3             4             5 
      1  0.000000D+00
      2  0.000000D+00  0.000000D+00
      3  0.000000D+00  0.000000D+00  0.000000D+00
      4 -0.989065D+00 -0.630956D+00  0.000000D+00  0.000000D+00
      5  0.000000D+00  0.000000D+00  0.000000D+00  0.000000D+00  0.000000D+00
      6  0.000000D+00  0.000000D+00  0.000000D+00 -0.259167D-01  0.000000D+00
      7  0.000000D+00  0.000000D+00  0.000000D+00  0.242998D+00  0.000000D+00
      8  0.000000D+00  0.000000D+00  0.000000D+00  0.000000D+00  0.000000D+00
      9 -0.259167D-01  0.242998D+00  0.000000D+00  0.000000D+00 -0.282904D+00
     10  0.000000D+00  0.000000D+00  0.000000D+00  0.282904D+00  0.000000D+00
     11 -0.964918D-01 -0.641818D+00  0.000000D+00 -0.421370D+00 -0.424560D+00
     12  0.964918D-01  0.641818D+00  0.000000D+00 -0.421370D+00  0.424560D+00
     13 -0.348246D-02  0.102785D+00  0.000000D+00  0.112998D+00 -0.133360D+00
     14  0.348246D-02 -0.102785D+00  0.000000D+00  0.112998D+00  0.133360D+00
                6             7             8             9            10 
      6  0.000000D+00
      7  0.000000D+00  0.000000D+00
      8  0.000000D+00  0.000000D+00  0.000000D+00
      9  0.989065D+00  0.630956D+00  0.000000D+00  0.000000D+00
     10  0.000000D+00  0.000000D+00  0.000000D+00  0.000000D+00  0.000000D+00
     11  0.348246D-02 -0.102785D+00  0.000000D+00 -0.112998D+00 -0.133360D+00
     12 -0.348246D-02  0.102785D+00  0.000000D+00 -0.112998D+00  0.133360D+00
     13  0.964918D-01  0.641818D+00  0.000000D+00  0.421370D+00 -0.424560D+00
     14 -0.964918D-01 -0.641818D+00  0.000000D+00  0.421370D+00  0.424560D+00
               11            12            13            14 
     11  0.000000D+00
     12  0.291603D+00  0.000000D+00
     13  0.914153D-01  0.000000D+00  0.000000D+00
     14  0.000000D+00 -0.914153D-01 -0.291603D+00  0.000000D+00
 Leave Link  308 at Wed May 13 12:33:57 2020, MaxMem=  4294967296 cpu:               0.3 elap:               0.0
 (Enter /opt/gaussian/gdv-20180628-i14+/gdv/l401.exe)
 Initial guess wavefunction:
 SetAtRh:  ITypeU=  14 NETotI=      16 ICharg=  0 NETot=      16.
 StAtR1:  I=    1 I1=    1 IA=  6 C=   6.0 OKShel=TTT
                                                  SSP
                                                  222
 StAtR1:  I=    2 I1=    2 IA=  6 C=   6.0 OKShel=TTT
                                                  SSP
                                                  222
 StAtR1:  I=    3 I1=    3 IA=  1 C=   1.0 OKShel=T
                                                  S
                                                  1
 StAtR1:  I=    4 I1=    4 IA=  1 C=   1.0 OKShel=T
                                                  S
                                                  1
 StAtR1:  I=    5 I1=    5 IA=  1 C=   1.0 OKShel=T
                                                  S
                                                  1
 StAtR1:  I=    6 I1=    6 IA=  1 C=   1.0 OKShel=T
                                                  S
                                                  1
          I=    1 IA=  6 I1=    1 NAtG=12 NE=   6.000 C=   6.000 Err=-4.82D-12
          I=    2 IA=  6 I1=    2 NAtG=12 NE=   6.000 C=   6.000 Err=-4.82D-12
          I=    3 IA=  1 I1=    3 NAtG=10 NE=   1.000 C=   1.000 Err=-1.35D-12
          I=    4 IA=  1 I1=    4 NAtG=10 NE=   1.000 C=   1.000 Err=-1.35D-12
          I=    5 IA=  1 I1=    5 NAtG=10 NE=   1.000 C=   1.000 Err=-1.35D-12
          I=    6 IA=  1 I1=    6 NAtG=10 NE=   1.000 C=   1.000 Err=-1.35D-12
 ShPair: Thresh= 1.00D-12 NBox=     0 BxSize= 0.00D+00 RnKept= 5.83D+00
         NSMCal=                   36 NSMKep=                  36
 ReadGW:  IGet=1 IStart=           1 Next=           1 LGW=           0.
 ExpMin= 1.69D-01 ExpMax= 7.16D+01 ExpMxC= 7.16D+01 IAcc=3 IRadAn=         5 AccDes= 0.00D+00
 Harris functional with IExCor=  205 and IRadAn=       5 diagonalized for initial guess.
 HarFok:  IExCor=  205 AccDes= 0.00D+00 IRadAn=         5 IDoV= 1 UseB2=F ITyADJ=14
 ICtDFT=  3500011 ScaDFX=  1.000000  1.000000  1.000000  1.000000
 Pruned (  99, 590) grid will be used in numerical quadrature.
 CkSvGd:  ISavGI=        -1 IRadAn=       5 IRASav=       0 ISavGd=        -1.
 SetAtRh:  ITypeU=  13 NETotI=      16 ICharg=  0 NETot=      16.
 StAtR1:  I=    1 I1=    1 IA=  6 C=   6.0 OKShel=TTT
                                                  SSP
                                                  222
 StAtR1:  I=    2 I1=    2 IA=  6 C=   6.0 OKShel=TTT
                                                  SSP
                                                  222
 StAtR1:  I=    3 I1=    3 IA=  1 C=   1.0 OKShel=T
                                                  S
                                                  1
 StAtR1:  I=    4 I1=    4 IA=  1 C=   1.0 OKShel=T
                                                  S
                                                  1
 StAtR1:  I=    5 I1=    5 IA=  1 C=   1.0 OKShel=T
                                                  S
[...]
      5   0.000000D+00  0.000000D+00  0.000000D+00  0.000000D+00  0.000000D+00
      6  -0.303444D-03  0.000000D+00  0.458166D-01  0.000000D+00  0.000000D+00
      7   0.000000D+00  0.000000D+00  0.000000D+00  0.000000D+00  0.000000D+00
      8   0.000000D+00  0.000000D+00  0.000000D+00  0.000000D+00  0.000000D+00
                 6             7             8 
      1  -0.303444D-03  0.000000D+00  0.000000D+00
      2   0.000000D+00  0.000000D+00  0.000000D+00
      3   0.458166D-01  0.000000D+00  0.000000D+00
      4   0.000000D+00  0.000000D+00  0.000000D+00
      5   0.000000D+00  0.000000D+00  0.000000D+00
      6  -0.211082D+00  0.000000D+00  0.000000D+00
      7   0.000000D+00  0.000000D+00  0.000000D+00
      8   0.000000D+00  0.000000D+00 -0.572583D-03
 S1ab-Alpha:
                 1             2             3             4             5 
      1  -0.219866D+00  0.000000D+00  0.000000D+00  0.000000D+00  0.000000D+00
      2   0.000000D+00  0.000000D+00  0.000000D+00  0.000000D+00  0.000000D+00
      3   0.000000D+00  0.000000D+00  0.000000D+00  0.000000D+00  0.000000D+00
      4   0.000000D+00  0.000000D+00  0.000000D+00 -0.572040D-03  0.000000D+00
      5   0.000000D+00  0.000000D+00  0.000000D+00  0.000000D+00  0.000000D+00
      6   0.000000D+00  0.000000D+00  0.000000D+00 -0.179571D-04  0.000000D+00
                 6 
      1   0.000000D+00
      2   0.000000D+00
      3   0.000000D+00
      4  -0.179571D-04
      5   0.000000D+00
      6   0.000000D+00
 Leave Link  914 at Wed May 13 12:33:58 2020, MaxMem=  4294967296 cpu:               2.0 elap:               0.2
 (Enter /opt/gaussian/gdv-20180628-i14+/gdv/l1002.exe)
 Minotr:  Closed shell wavefunction.
          Computing CIS/TDA/TD derivatives.
          Using Z-Vector for PSCF gradient.
          Skipping F1 and S1 gradient terms here.
          Frozen-core window.
          Direct CPHF calculation.
          Differentiating once with respect to electric field.
                with respect to dipole field.
          Electric field/nuclear overlap derivatives assumed to be zero.
          Requested convergence is 1.0D-10 RMS, and 1.0D-09 maximum.
          NewPWx=F KeepS1=T KeepF1=T KeepIn=T MapXYZ=F SortEE=F KeepMc=T.
 Keep R1 ints in memory in canonical form, NReq=2415969.
 FoFCou: FMM=F IPFlag=           0 FMFlag=           0 FMFlg1=           0
         NFxFlg=           0 DoJE=F BraDBF=F KetDBF=F FulRan=T
         wScrn=  0.000000 ICntrl=       600 IOpCl=  0 I1Cent=           0 NGrid=           0
         NMat0=    1 NMatS0=    105 NMatT0=    0 NMatD0=    1 NMtDS0=    0 NMtDT0=    0
 Symmetry not used in FoFCou.
 Two-electron integral symmetry not used.
          MDV=    4294967296 using IRadAn=       5.
          Solving linear equations separately, MaxMat=       0.
          There are     1 degrees of freedom in the 1st order CPHF.  IDoFFX=0 NUNeed=     1.
 LinEq1:  Iter=  0 NonCon=     1 RMS=1.26D-02 Max=8.32D-02 NDo=     1
 AX will form     1 AO Fock derivatives at one time.
 LinEq1:  Iter=  1 NonCon=     1 RMS=7.35D-04 Max=3.52D-03 NDo=     1
 LinEq1:  Iter=  2 NonCon=     1 RMS=1.03D-04 Max=4.86D-04 NDo=     1
 LinEq1:  Iter=  3 NonCon=     1 RMS=3.95D-06 Max=1.93D-05 NDo=     1
 LinEq1:  Iter=  4 NonCon=     1 RMS=3.06D-07 Max=1.29D-06 NDo=     1
 LinEq1:  Iter=  5 NonCon=     1 RMS=1.91D-08 Max=7.89D-08 NDo=     1
 LinEq1:  Iter=  6 NonCon=     1 RMS=7.93D-10 Max=4.01D-09 NDo=     1
 LinEq1:  Iter=  7 NonCon=     0 RMS=3.56D-11 Max=2.12D-10 NDo=     1
 Linear equations converged to 1.000D-10 1.000D-09 after     7 iterations.
 End of Minotr F.D. properties file   721 does not exist.
 End of Minotr F.D. properties file   722 does not exist.
 End of Minotr F.D. properties file   788 does not exist.
 Leave Link 1002 at Wed May 13 12:33:59 2020, MaxMem=  4294967296 cpu:               4.0 elap:               0.4
 (Enter /opt/gaussian/gdv-20180628-i14+/gdv/l601.exe)
 GetPMM: IRwPM=  824 LRwPM=    0 LPMAll=    2
 GetPCM: File not found, return IValue=0.
 Copying SCF densities to generalized density rwf, IOpCl= 0 IROHF=0.

 **********************************************************************

            Population analysis using the CI Density.

 **********************************************************************

 Alpha  occ. eigenvalues --  -11.01967 -11.01890  -0.97600  -0.74355  -0.60165
 Alpha  occ. eigenvalues --   -0.52804  -0.46262  -0.32307
 Alpha virt. eigenvalues --    0.31744   0.63078   0.68664   0.69100   0.93938
 Alpha virt. eigenvalues --    0.97818
     Density Matrix:
                           1         2         3         4         5
   1 1   C  1S          2.06935
   2        2S         -0.21235   0.81914
   3        2PX         0.00000  -0.00000   1.46184
   4        2PY         0.00000  -0.00000   0.00000   0.61124
   5        2PZ        -0.01668   0.05888   0.00000   0.00000   0.31613
   6 2   C  1S          0.02461  -0.05898   0.00000   0.00000   0.09338
   7        2S         -0.05898   0.04977  -0.00000  -0.00000  -0.23722
   8        2PX        -0.00000   0.00000   0.15254  -0.00000   0.00000
   9        2PY        -0.00000   0.00000  -0.00000   0.00851  -0.00000
  10        2PZ        -0.09338   0.23722  -0.00000  -0.00000  -0.20654
  11 3   H  1S         -0.11921   0.31151  -0.00000   0.47653   0.16829
  12 4   H  1S         -0.11921   0.31151   0.00000  -0.47653   0.16829
  13 5   H  1S          0.02116  -0.08270   0.00000  -0.06707   0.01531
  14 6   H  1S          0.02116  -0.08270   0.00000   0.06707   0.01531
                           6         7         8         9        10
   6 2   C  1S          2.06935
   7        2S         -0.21235   0.81914
   8        2PX        -0.00000   0.00000   1.46184
   9        2PY        -0.00000   0.00000  -0.00000   0.61124
  10        2PZ         0.01668  -0.05888  -0.00000   0.00000   0.31613
  11 3   H  1S          0.02116  -0.08270  -0.00000  -0.06707  -0.01531
  12 4   H  1S          0.02116  -0.08270   0.00000   0.06707  -0.01531
  13 5   H  1S         -0.11921   0.31151  -0.00000   0.47653  -0.16829
  14 6   H  1S         -0.11921   0.31151   0.00000  -0.47653  -0.16829
                          11        12        13        14
  11 3   H  1S          0.56980
  12 4   H  1S         -0.19088   0.56980
  13 5   H  1S         -0.12931   0.09031   0.56980
  14 6   H  1S          0.09031  -0.12931  -0.19088   0.56980
          Condensed to atoms (all electrons):
               1          2          3          4          5          6
     1  C    5.172211   0.301567   0.377983   0.377983  -0.014285  -0.014285
     2  C    0.301567   5.172211  -0.014285  -0.014285   0.377983   0.377983
     3  H    0.377983  -0.014285   0.569798  -0.028610  -0.006846   0.001373
     4  H    0.377983  -0.014285  -0.028610   0.569798   0.001373  -0.006846
     5  H   -0.014285   0.377983  -0.006846   0.001373   0.569798  -0.028610
     6  H   -0.014285   0.377983   0.001373  -0.006846  -0.028610   0.569798
 Mulliken charges:
               1
     1  C   -0.201174
     2  C   -0.201174
     3  H    0.100587
     4  H    0.100587
     5  H    0.100587
     6  H    0.100587
 Sum of Mulliken charges =   0.00000
 Mulliken charges with hydrogens summed into heavy atoms:
               1
     1  C    0.000000
     2  C   -0.000000
 DipInt: DoE/N= T F RetVal/Mat= T F Init=T NMatP=  1 IDeriv=0 Min/MaxMlt=  0  4
 Entering OneElI...
 OneElI was handed  4294966324 working-precision words.
 Multipole integrals L=0 to 4 MinM= 0 MaxM= 0.
 Requested accuracy = 0.1000D-12
 ShPair: Thresh= 1.00D-13 NBox=     0 BxSize= 0.00D+00 RnKept= 5.83D+00
         NSMCal=                   36 NSMKep=                  36
 PrmmSu-InSpLW:  IPartL=    0 NPrtUS=    1 NPrtUL=    1 DoSpLW=F IThBeg=    0 IThEnd=    0 NThAct=    1.
 PrSmSu:  IncTry=   512 NBBP=             36 NTPThr=   100 NPartT=    1 Incr=           1 LDynOK=F GPUOK=F.
 PrsmSu:  NPrtUS=   1 ThrOK=F IAlg=2 LenDen=           0 ISkipM=0 DoSpLW=F IThBeg=    0 IThEnd=    0.
 Prism:   IPart=     0 DynPar=F LinDyn=F Incr=           1.
 PRISM was handed  4294959845 working-precision words and    36 shell-pairs
 IPart=  0 NShTot=          36 NBatch=           6 AvBLen=         6.0
 PrsmSu-ThDecC:  IPartSL=    0    0 NPrtUSL=    1    1 IThBeg=    0 IThEnd=    0 CPU=   -1 GPU=   -1 NThAct=    1.
 PrSmSu:  NxtVal=              2.
 Electronic moments (au):
        -16.00000000         -0.00000000         -0.00000000          0.00000000
        -10.86382317        -20.61203784        -48.66872201          0.00000000
          0.00000000         -0.00000000         -0.00000000         -0.00000000
          0.00000000         -0.00000000         -0.00000000          0.00000000
         -0.00000000         -0.00000000          0.00000000         -0.00000000
        -31.99138915        -98.98166921       -298.18441798          0.00000000
          0.00000000          0.00000000         -0.00000000          0.00000000
         -0.00000000        -17.09281130        -35.96280397        -95.70617072
         -0.00000000         -0.00000000          0.00000000
 Electronic spatial extent (au):  <R**2>=             80.1446
 DipInt: DoE/N= F T RetVal/Mat= T F Init=T NMatP=  1 IDeriv=0 Min/MaxMlt=  0  4
 Nuclear    moments (au):
         16.00000000          0.00000000          0.00000000          0.00000000
          0.00000000         12.32524756         40.89242273          0.00000000
          0.00000000          0.00000000          0.00000000          0.00000000
          0.00000000          0.00000000          0.00000000          0.00000000
          0.00000000          0.00000000          0.00000000          0.00000000
          0.00000000         37.97793186        148.29982997          0.00000000
          0.00000000          0.00000000          0.00000000          0.00000000
          0.00000000          0.00000000          0.00000000         66.81674274
          0.00000000          0.00000000          0.00000000
 Total      moments (au):
          0.00000000         -0.00000000         -0.00000000          0.00000000
        -10.86382317         -8.28679028         -7.77629928          0.00000000
          0.00000000         -0.00000000         -0.00000000         -0.00000000
          0.00000000         -0.00000000         -0.00000000          0.00000000
         -0.00000000         -0.00000000          0.00000000         -0.00000000
        -31.99138915        -61.00373735       -149.88458801          0.00000000
          0.00000000          0.00000000         -0.00000000          0.00000000
         -0.00000000        -17.09281130        -35.96280397        -28.88942798
         -0.00000000         -0.00000000          0.00000000
 Traceless Quadrup. (au):
         -1.88818560          0.68884730          1.19933830          0.00000000
          0.00000000         -0.00000000
 Charge=              0.0000 electrons
 Dipole moment (field-independent basis, Debye):
    X=             -0.0000    Y=             -0.0000    Z=              0.0000  Tot=              0.0000
 Quadrupole moment (field-independent basis, Debye-Ang):
   XX=            -14.6122   YY=            -11.1460   ZZ=            -10.4594
   XY=              0.0000   XZ=              0.0000   YZ=             -0.0000
 Traceless Quadrupole moment (field-independent basis, Debye-Ang):
   XX=             -2.5397   YY=              0.9265   ZZ=              1.6132
   XY=              0.0000   XZ=              0.0000   YZ=             -0.0000
 Octapole moment (field-independent basis, Debye-Ang**2):
  XXX=             -0.0000  YYY=             -0.0000  ZZZ=              0.0000  XYY=             -0.0000
  XXY=             -0.0000  XXZ=              0.0000  XZZ=             -0.0000  YZZ=             -0.0000
  YYZ=              0.0000  XYZ=             -0.0000
 Hexadecapole moment (field-independent basis, Debye-Ang**3):
 XXXX=            -12.0495 YYYY=            -22.9769 ZZZZ=            -56.4537 XXXY=              0.0000
 XXXZ=              0.0000 YYYX=              0.0000 YYYZ=             -0.0000 ZZZX=              0.0000
 ZZZY=             -0.0000 XXYY=             -6.4380 XXZZ=            -13.5453 YYZZ=            -10.8811
 XXYZ=             -0.0000 YYXZ=             -0.0000 ZZXY=              0.0000
 N-N= 3.326509048119D+01 E-N=-2.460856431572D+02  KE= 7.709628439260D+01
 Entering OneElI...
 OneElI was handed  4294966259 working-precision words.
 Calculate electrostatic properties
    NBasis =    14  MinDer = 0  MaxDer = 0
    NGrid  =     6  NMatD  =   1
 Requested accuracy = 0.1000D-12
 ShPair: Thresh= 1.00D-13 NBox=     0 BxSize= 0.00D+00 RnKept= 5.83D+00
         NSMCal=                   36 NSMKep=                  36
 PrmmSu-InSpLW:  IPartL=    0 NPrtUS=   12 NPrtUL=    1 DoSpLW=F IThBeg=    0 IThEnd=   11 NThAct=   12.
 PrSmSu:  IncTry=   512 NBBP=            216 NTPThr=   100 NPartT=   12 Incr=           1 LDynOK=F GPUOK=F.
 PrsmSu:  NPrtUS=  12 ThrOK=T IAlg=2 LenDen=           0 ISkipM=0 DoSpLW=F IThBeg=    0 IThEnd=   11.
 Prism:   IPart=     0 DynPar=F LinDyn=F Incr=           1.
 PRISM was handed   357910280 working-precision words and    36 shell-pairs
 PRISM was handed   357910280 working-precision words and    36 shell-pairs
 PRISM was handed   357910280 working-precision words and    36 shell-pairs
 PRISM was handed   357910280 working-precision words and    36 shell-pairs
 PRISM was handed   357910280 working-precision words and    36 shell-pairs
 PRISM was handed   357910280 working-precision words and    36 shell-pairs
 PRISM was handed   357910280 working-precision words and    36 shell-pairs
 PRISM was handed   357910280 working-precision words and    36 shell-pairs
 PRISM was handed   357910280 working-precision words and    36 shell-pairs
 PRISM was handed   357910280 working-precision words and    36 shell-pairs
 PRISM was handed   357910280 working-precision words and    36 shell-pairs
 PRISM was handed   357910280 working-precision words and    36 shell-pairs
 IPart=  8 NShTot=          12 NBatch=           2 AvBLen=         6.0
 PrsmSu-ThDecC:  IPartSL=    8    0 NPrtUSL=   12    1 IThBeg=    0 IThEnd=   11 CPU=   -1 GPU=   -1 NThAct=   12.
 IPart=  2 NShTot=          30 NBatch=           5 AvBLen=         6.0
 PrsmSu-ThDecC:  IPartSL=    2    0 NPrtUSL=   12    1 IThBeg=    0 IThEnd=   11 CPU=   -1 GPU=   -1 NThAct=   11.
 IPart=  6 NShTot=          12 NBatch=           2 AvBLen=         6.0
 IPart= 10 NShTot=          12 NBatch=           2 AvBLen=         6.0
 IPart=  0 NShTot=          36 NBatch=           6 AvBLen=         6.0
 PrsmSu-ThDecC:  IPartSL=    6    0 NPrtUSL=   12    1 IThBeg=    0 IThEnd=   11 CPU=   -1 GPU=   -1 NThAct=   10.
 PrsmSu-ThDecC:  IPartSL=    0    0 NPrtUSL=   12    1 IThBeg=    0 IThEnd=   11 CPU=   -1 GPU=   -1 NThAct=    9.
 IPart=  4 NShTot=          12 NBatch=           2 AvBLen=         6.0
 PrsmSu-ThDecC:  IPartSL=   10    0 NPrtUSL=   12    1 IThBeg=    0 IThEnd=   11 CPU=   -1 GPU=   -1 NThAct=    8.
 PrsmSu-ThDecC:  IPartSL=    4    0 NPrtUSL=   12    1 IThBeg=    0 IThEnd=   11 CPU=   -1 GPU=   -1 NThAct=    7.
 IPart= 11 NShTot=          12 NBatch=           2 AvBLen=         6.0
 PrsmSu-ThDecC:  IPartSL=   11    0 NPrtUSL=   12    1 IThBeg=    0 IThEnd=   11 CPU=   -1 GPU=   -1 NThAct=    6.
 IPart=  9 NShTot=          12 NBatch=           2 AvBLen=         6.0
 PrsmSu-ThDecC:  IPartSL=    9    0 NPrtUSL=   12    1 IThBeg=    0 IThEnd=   11 CPU=   -1 GPU=   -1 NThAct=    5.
 IPart=  5 NShTot=          12 NBatch=           2 AvBLen=         6.0
 PrsmSu-ThDecC:  IPartSL=    5    0 NPrtUSL=   12    1 IThBeg=    0 IThEnd=   11 CPU=   -1 GPU=   -1 NThAct=    4.
 IPart=  3 NShTot=          24 NBatch=           4 AvBLen=         6.0
 PrsmSu-ThDecC:  IPartSL=    3    0 NPrtUSL=   12    1 IThBeg=    0 IThEnd=   11 CPU=   -1 GPU=   -1 NThAct=    3.
 IPart=  7 NShTot=          12 NBatch=           2 AvBLen=         6.0
 PrsmSu-ThDecC:  IPartSL=    7    0 NPrtUSL=   12    1 IThBeg=    0 IThEnd=   11 CPU=   -1 GPU=   -1 NThAct=    2.
 IPart=  1 NShTot=          30 NBatch=           5 AvBLen=         6.0
 PrsmSu-ThDecC:  IPartSL=    1    0 NPrtUSL=   12    1 IThBeg=    0 IThEnd=   11 CPU=   -1 GPU=   -1 NThAct=    1.
 PrSmSu:  NxtVal=             13.
 --------------------------------------------------------
       Center         ----      EFG at Nuclei      ----
                      3XX-RR        3YY-RR        3ZZ-RR
 --------------------------------------------------------
     1   Atom        1.214413     -0.211233     -1.003181
     2   Atom        1.214413     -0.211233     -1.003181
     3   Atom        0.195271     -0.227751      0.032480
     4   Atom        0.195271     -0.227751      0.032480
     5   Atom        0.195271     -0.227751      0.032480
     6   Atom        0.195271     -0.227751      0.032480
 --------------------------------------------------------
                        XY            XZ            YZ
 --------------------------------------------------------
     1   Atom        0.000000      0.000000      0.000000
     2   Atom       -0.000000     -0.000000      0.000000
     3   Atom       -0.000000     -0.000000     -0.190170
     4   Atom        0.000000      0.000000      0.190170
     5   Atom        0.000000     -0.000000      0.190170
     6   Atom        0.000000      0.000000     -0.190170
 --------------------------------------------------------


 ---------------------------------------------------------------------------------
              Nuclear Quadrupole Coupling Constant in Principal Axis System
 ---------------------------------------------------------------------------------

       Atom             a.u.   MegaHertz   Gauss  10(-4) cm-1        Axes


 ---------------------------------------------------------------------------------

 No NMR shielding tensors so no spin-rotation constants.
 Leave Link  601 at Wed May 13 12:33:59 2020, MaxMem=  4294967296 cpu:               1.2 elap:               0.1
 (Enter /opt/gaussian/gdv-20180628-i14+/gdv/l9999.exe)
 Electronic transition elements 
                 1             2             3 
      1  -0.766634D+02 -0.766582D+02 -0.766548D+02
      2   0.000000D+00  0.000000D+00  0.000000D+00
      3   0.000000D+00  0.000000D+00  0.000000D+00
      4  -0.164518D+01  0.000000D+00  0.000000D+00
      5   0.000000D+00  0.000000D+00  0.000000D+00
      6   0.000000D+00  0.000000D+00  0.000000D+00
      7   0.182347D+00  0.000000D+00  0.000000D+00
      8   0.000000D+00  0.000000D+00  0.000000D+00
      9   0.000000D+00  0.164529D+01  0.000000D+00
     10   0.000000D+00  0.000000D+00 -0.126041D+01
     11   0.000000D+00  0.000000D+00  0.000000D+00
     12   0.000000D+00  0.000000D+00  0.000000D+00
     13   0.000000D+00  0.000000D+00  0.000000D+00
     14   0.000000D+00  0.000000D+00  0.191329D-01
     15   0.000000D+00 -0.117927D+00  0.000000D+00
     16   0.000000D+00  0.000000D+00  0.000000D+00

 Test job not archived.
 1\1\GINC-NODE01\SP\RCIS-FC\STO-3G\C2H4\KRANKA\13-May-2020\0\\#P hf/sto
 -3g CIS(NStates=3,Root=2,AllTransitionDensities) density=current nosym
 m iop(6/8=1,5/72=-3,3/33=3,3/36=1,4/33=3,5/33=3,6/33=3,9/33=3)\\Prelim
 inary CIS calculation to determine density matrices and calculate dipo
 le moment matrices in the CI-state basis\\0,1\C,0,0.,0.,0.6695\C,0,0.,
 0.,-0.6695\H,0,0.,0.9289,1.2321\H,0,0.,-0.9289,1.2321\H,0,0.,0.9289,-1
 .2321\H,0,0.,-0.9289,-1.2321\\Version=ES64L-GDVRevI.14+\HF=-77.0720878
 \RMSD=4.736e-09\Dipole=0.,0.,0.\Quadrupole=-1.8881856,0.6888473,1.1993
 383,0.,0.,0.\PG=D02H [C2"(C1.C1),SG(H4)]\\@


 AND ALL THIS SCIENCE I DON'T UNDERSTAND
 IT'S JUST MY JOB FIVE DAYS A WEEK

                           -- ELTON JOHN, "ROCKET MAN"
 Job cpu time:       0 days  0 hours  0 minutes 17.0 seconds.
 Elapsed time:       0 days  0 hours  0 minutes  1.8 seconds.
 File lengths (MBytes):  RWF=      6 Int=      0 D2E=      0 Chk=      3 Scr=      1
 Normal termination of Gaussian DV at Wed May 13 12:33:59 2020.
