************************************************************
This is node05.cluster of cluster Pinconning.
Date: Sun Jun  7 12:39:17 PDT 2020
************************************************************
 Set GAUSS_MDEF to "32GB".
 Set GAUSS_PDEF to "12".
 Entering Gaussian System, Link 0=gdv
 Initial command:
 /opt/gaussian/gdv-20180628-i14+/gdv/l1.exe "/tmp/724050.1.allnodes.q/Gau-4885.inp" -scrdir="/tmp/724050.1.allnodes.q/"
 Default is to use a total of  12 processors:
                               12 via shared-memory
                                1 via Linda
 Entering Link 1 = /opt/gaussian/gdv-20180628-i14+/gdv/l1.exe PID=      4886.
  
 Copyright (c) 1988-2018, Gaussian, Inc.  All Rights Reserved.
  
 This is the private, development version of
 the Gaussian(R) DV system of programs. It is based on
 the Gaussian(R) 16 system (copyright 2016, Gaussian, Inc.),
 the Gaussian(R) 09 system (copyright 2009, Gaussian, Inc.),
 the Gaussian(R) 03 system (copyright 2003, Gaussian, Inc.),
 the Gaussian(R) 98 system (copyright 1998, Gaussian, Inc.),
 the Gaussian(R) 94 system (copyright 1995, Gaussian, Inc.),
 the Gaussian 92(TM) system (copyright 1992, Gaussian, Inc.),
 the Gaussian 90(TM) system (copyright 1990, Gaussian, Inc.),
 the Gaussian 88(TM) system (copyright 1988, Gaussian, Inc.),
 the Gaussian 86(TM) system (copyright 1986, Carnegie Mellon
 University), and the Gaussian 82(TM) system (copyright 1983,
 Carnegie Mellon University). Gaussian is a federally registered
 trademark of Gaussian, Inc.
  
 This software contains proprietary and confidential information,
 including trade secrets, belonging to Gaussian, Inc.
  
 This software is provided under written license and may be
 used, copied, transmitted, or stored only in accord with that
 written license.
  
 The following legend is applicable only to US Government
 contracts under FAR:
  
                    RESTRICTED RIGHTS LEGEND
  
 Use, reproduction and disclosure by the US Government is
 subject to restrictions as set forth in subparagraphs (a)
 and (c) of the Commercial Computer Software - Restricted
 Rights clause in FAR 52.227-19.
  
 Gaussian, Inc.
 340 Quinnipiac St., Bldg. 40, Wallingford CT 06492
  
  
 ---------------------------------------------------------------
 Warning -- This program may not be used in any manner that
 competes with the business of Gaussian, Inc. or will provide
 assistance to any competitor of Gaussian, Inc.  The licensee
 of this program is prohibited from giving any competitor of
 Gaussian, Inc. access to this program.  By using this program,
 the user acknowledges that Gaussian, Inc. is engaged in the
 business of creating and licensing software in the field of
 computational chemistry and represents and warrants to the
 licensee that it is not a competitor of Gaussian, Inc. and that
 it will not use this program in any manner prohibited above.
 ---------------------------------------------------------------
  

 Cite this work as:
 Gaussian Development Version, Revision I.14+,
 M. J. Frisch, G. W. Trucks, H. B. Schlegel, G. E. Scuseria, 
 M. A. Robb, J. R. Cheeseman, G. Scalmani, V. Barone, 
 G. A. Petersson, H. Nakatsuji, X. Li, M. Caricato, A. V. Marenich, 
 J. Bloino, B. G. Janesko, R. Gomperts, B. Mennucci, H. P. Hratchian, 
 J. V. Ortiz, A. F. Izmaylov, J. L. Sonnenberg, D. Williams-Young, 
 F. Ding, F. Lipparini, F. Egidi, J. Goings, B. Peng, A. Petrone, 
 T. Henderson, D. Ranasinghe, V. G. Zakrzewski, J. Gao, N. Rega, 
 G. Zheng, W. Liang, M. Hada, M. Ehara, K. Toyota, R. Fukuda, 
 J. Hasegawa, M. Ishida, T. Nakajima, Y. Honda, O. Kitao, H. Nakai, 
 T. Vreven, K. Throssell, J. A. Montgomery, Jr., J. E. Peralta, 
 F. Ogliaro, M. J. Bearpark, J. J. Heyd, E. N. Brothers, K. N. Kudin, 
 V. N. Staroverov, T. A. Keith, R. Kobayashi, J. Normand, 
 K. Raghavachari, A. P. Rendell, J. C. Burant, S. S. Iyengar, 
 J. Tomasi, M. Cossi, J. M. Millam, M. Klene, C. Adamo, R. Cammi, 
 J. W. Ochterski, R. L. Martin, K. Morokuma, O. Farkas, 
 J. B. Foresman, and D. J. Fox, Gaussian, Inc., Wallingford CT, 2018.
 
 *******************************************
 Gaussian DV:  ES64L-GDVRevI.14+ 23-Jun-2018
                  7-Jun-2020 
 *******************************************
 %chk=cis_s0_lih_sto-3g.chk
 ----------------------------------------------------------------------
 #p hf/sto-3g CIS(NStates=30,Root=1,AllTransitionDensities,Singlets) no
 symm IOp(3/33=3,3/36=1,4/33=3,5/33=3,5/72=-3,6/8=1,6/33=3,8/10=90,9/33
 =3,9/40=3)
 ----------------------------------------------------------------------
 1/38=1,172=1/1;
 2/12=2,15=1,17=6,18=5,40=1/2;
 3/6=3,11=9,25=1,30=1,33=3,36=1/1,2,3,8;
 4/33=3/1;
 5/5=2,33=3,38=5,72=-3/2;
 8/6=1,10=90,107=1,108=30/1;
 9/8=1,33=3,40=3,41=30,42=1,44=3,48=1/14;
 6/7=2,8=1,9=2,10=2,33=3/1;
 99/5=1,9=1/99;
 Leave Link    1 at Sun Jun  7 12:39:17 2020, MaxMem=           0 cpu:               1.0 elap:               0.1
 (Enter /opt/gaussian/gdv-20180628-i14+/gdv/l101.exe)
 ---------------
 CIS calculation
 ---------------
 Symbolic Z-matrix:
 Charge =  0 Multiplicity = 1
 H                     0.        0.       -0.765 
 Li                    0.        0.        0.765 
 
 ITRead=  0  0
 MicOpt= -1 -1
 NAtoms=      2 NQM=        2 NQMF=       0 NMMI=      0 NMMIF=      0
                NMic=       0 NMicF=      0.
                    Isotopes and Nuclear Properties:
 (Nuclear quadrupole moments (NQMom) in fm**2, nuclear magnetic moments (NMagM)
  in nuclear magnetons)

  Atom         1           2
 IAtWgt=           1           7
 AtmWgt=   1.0078250   7.0160045
 NucSpn=           1           3
 AtZEff=  -0.0000000  -0.0000000
 NQMom=    0.0000000  -4.0100000
 NMagM=    2.7928460   3.2564240
 AtZNuc=   1.0000000   3.0000000
 Leave Link  101 at Sun Jun  7 12:39:17 2020, MaxMem=  4294967296 cpu:               1.3 elap:               0.1
 (Enter /opt/gaussian/gdv-20180628-i14+/gdv/l202.exe)
                          Input orientation:                          
 ---------------------------------------------------------------------
 Center     Atomic      Atomic             Coordinates (Angstroms)
 Number     Number       Type             X           Y           Z
 ---------------------------------------------------------------------
      1          1           0        0.000000    0.000000   -0.765000
      2          3           0        0.000000    0.000000    0.765000
 ---------------------------------------------------------------------
 Symmetry turned off by external request.
 Stoichiometry    HLi
 Framework group  C*V[C*(HLi)]
 Deg. of freedom     1
 Full point group                 C*V     NOp   4
 Rotational constants (GHZ):           0.0000000         244.9858662         244.9858662
 Leave Link  202 at Sun Jun  7 12:39:17 2020, MaxMem=  4294967296 cpu:               0.1 elap:               0.0
 (Enter /opt/gaussian/gdv-20180628-i14+/gdv/l301.exe)
 Standard basis: STO-3G (5D, 7F)
                         Coordinates in L301:                         
 ---------------------------------------------------------------------
 Center     Atomic      Atomic             Coordinates (Angstroms)
 Number     Number       Type             X           Y           Z
 ---------------------------------------------------------------------
      1          1           0        0.000000    0.000000   -0.765000
      2          3           0        0.000000    0.000000    0.765000
 ---------------------------------------------------------------------
 FixB: optimizing general contractions.
 Ernie: Thresh=  0.10000D-02 Tol=  0.10000D-05 Strict=F.
 IA=     1 ShT= 0 ShC= 0 NL=   1 NS=   0.
         I=   1 JX=   3 NP=   3
 IA=     1 L=0 SC=0 ISt=    0 NBk=    0 NP=    0 IndPr=    0.
 IA=     2 ShT= 0 ShC= 0 NL=   1 NS=   0.
         I=   1 JX=   3 NP=   3
 IA=     2 L=0 SC=0 ISt=    0 NBk=    0 NP=    0 IndPr=    0.
 IA=     2 ShT= 1 ShC= 0 NL=   1 NS=   0.
         I=   1 JX=   3 NP=   3
 IA=     2 L=1 SC=0 ISt=    0 NBk=    0 NP=    0 IndPr=    0.
 Electric field displacement of shell     1 is  0.00D+00
 Electric field displacement of shell     2 is  0.00D+00
 Electric field displacement of shell     3 is  0.00D+00
 LdAtmC:  AtmChg=     1.000000     3.000000
 AtZEff=     -1.0000000     -1.3500000
     6 basis functions,    18 primitive gaussians,     6 cartesian basis functions
     2 alpha electrons        2 beta electrons
       nuclear repulsion energy         1.0376023744 Hartrees.
 IS=     1 IAt=     1 ISR=     1 T=0 IP=      1 IndIP=      1 IndIPD=      0 C=  2.769344D-01  0.000000D+00                             NZ=T
 IS=     1 IAt=     1 ISR=     1 T=0 IP=      2 IndIP=      2 IndIPD=      1 C=  2.678389D-01  0.000000D+00                             NZ=T
 IS=     1 IAt=     1 ISR=     1 T=0 IP=      3 IndIP=      3 IndIPD=      2 C=  8.347367D-02  0.000000D+00                             NZ=T
 IS=     2 IAt=     2 ISR=     1 T=0 IP=      1 IndIP=      4 IndIPD=      0 C=  8.848563D-01  0.000000D+00                             NZ=T
 IS=     2 IAt=     2 ISR=     1 T=0 IP=      2 IndIP=      5 IndIPD=      1 C=  8.557945D-01  0.000000D+00                             NZ=T
 IS=     2 IAt=     2 ISR=     1 T=0 IP=      3 IndIP=      6 IndIPD=      2 C=  2.667138D-01  0.000000D+00                             NZ=T
 IS=     3 IAt=     2 ISR=     2 T=1 IP=      1 IndIP=      7 IndIPD=      0 C= -5.075852D-02  1.262991D-01                             NZ=T
 IS=     3 IAt=     2 ISR=     2 T=1 IP=      2 IndIP=      8 IndIPD=      1 C=  6.789362D-02  7.942025D-02                             NZ=T
 IS=     3 IAt=     2 ISR=     2 T=1 IP=      3 IndIP=      9 IndIPD=      2 C=  5.124033D-02  1.258150D-02                             NZ=T
 IExCor=    0 DFT=F Ex=HF Corr=None ExCW=0 ScaHFX=  1.000000
 ScaDFX=  1.000000  1.000000  1.000000  1.000000
 IRadAn=      5 IRanWt=     -1 IRanGd=            0 ICorTp=0 IEmpDi=  4
 NAtoms=    2 NActive=    2 NUniq=    2 SFac= 1.00D+00 NAtFMM=   60 NAOKFM=F Big=F
 Integral buffers will be    131072 words long.
 Raffenetti 1 integral format.
 Two-electron integral symmetry is turned off.
 Pair potential:
 Leave Link  301 at Sun Jun  7 12:39:17 2020, MaxMem=  4294967296 cpu:               0.7 elap:               0.1
 (Enter /opt/gaussian/gdv-20180628-i14+/gdv/l302.exe)
 GetPMM: IRwPM=  824 LRwPM=    0 LPMAll=    2
 GetPCM: File not found, return IValue=0.
 NPDir=0 NMtPBC=     1 NCelOv=     1 NCel=       1 NClECP=     1 NCelD=      1
         NCelK=      1 NCelE2=     1 NClLst=     1 CellRange=     0.0.
 One-electron integrals computed using PRISM.
 Entering OneElI...
 OneElI was handed  4294967206 working-precision words.
 Calculate overlap and kinetic energy integrals
    NBasis =   6  MinDer = 0  MaxDer = 0
 Requested accuracy = 0.1000D-12
 ShPair: Thresh= 1.00D-13 NBox=     0 BxSize= 0.00D+00 RnKept= 2.89D+00
         NSMCal=                    6 NSMKep=                   6
 PrmmSu-InSpLW:  IPartL=    0 NPrtUS=   12 NPrtUL=    1 DoSpLW=F IThBeg=    0 IThEnd=   11 NThAct=   12.
 PrSmSu:  IncTry=   512 NBBP=              6 NTPThr=   100 NPartT=   12 Incr=           1 LDynOK=F GPUOK=F.
 PrsmSu:  NPrtUS=  12 ThrOK=T IAlg=1 LenDen=           0 ISkipM=0 DoSpLW=F IThBeg=    0 IThEnd=   11.
 Prism:   IPart=     0 DynPar=F LinDyn=F Incr=           1.
 PRISM was handed   357912789 working-precision words and     6 shell-pairs
 PRISM was handed   357912789 working-precision words and     6 shell-pairs
 PRISM was handed   357912789 working-precision words and     6 shell-pairs
 PRISM was handed   357912789 working-precision words and     6 shell-pairs
 PRISM was handed   357912789 working-precision words and     6 shell-pairs
 PRISM was handed   357912789 working-precision words and     6 shell-pairs
 PRISM was handed   357912789 working-precision words and     6 shell-pairs
 PRISM was handed   357912789 working-precision words and     6 shell-pairs
 PRISM was handed   357912789 working-precision words and     6 shell-pairs
 PRISM was handed   357912789 working-precision words and     6 shell-pairs
 PRISM was handed   357912789 working-precision words and     6 shell-pairs
 PRISM was handed   357912789 working-precision words and     6 shell-pairs
 IPart=  3 NShTot=           0 NBatch=           0 AvBLen=         0.0
 IPart=  4 NShTot=           0 NBatch=           0 AvBLen=         0.0
 IPart=  8 NShTot=           0 NBatch=           0 AvBLen=         0.0
 IPart=  9 NShTot=           0 NBatch=           0 AvBLen=         0.0
 IPart=  6 NShTot=           0 NBatch=           0 AvBLen=         0.0
 PrsmSu-ThDecC:  IPartSL=    3    0 NPrtUSL=   12    1 IThBeg=    0 IThEnd=   11 CPU=   -1 GPU=   -1 NThAct=   12.
 IPart= 10 NShTot=           0 NBatch=           0 AvBLen=         0.0
 PrsmSu-ThDecC:  IPartSL=    6    0 NPrtUSL=   12    1 IThBeg=    0 IThEnd=   11 CPU=   -1 GPU=   -1 NThAct=   11.
 PrsmSu-ThDecC:  IPartSL=    9    0 NPrtUSL=   12    1 IThBeg=    0 IThEnd=   11 CPU=   -1 GPU=   -1 NThAct=   10.
 PrsmSu-ThDecC:  IPartSL=   10    0 NPrtUSL=   12    1 IThBeg=    0 IThEnd=   11 CPU=   -1 GPU=   -1 NThAct=    9.
 PrsmSu-ThDecC:  IPartSL=    4    0 NPrtUSL=   12    1 IThBeg=    0 IThEnd=   11 CPU=   -1 GPU=   -1 NThAct=    8.
 PrsmSu-ThDecC:  IPartSL=    8    0 NPrtUSL=   12    1 IThBeg=    0 IThEnd=   11 CPU=   -1 GPU=   -1 NThAct=    7.
 IPart=  0 NShTot=           3 NBatch=           3 AvBLen=         1.0
 PrsmSu-ThDecC:  IPartSL=    0    0 NPrtUSL=   12    1 IThBeg=    0 IThEnd=   11 CPU=   -1 GPU=   -1 NThAct=    6.
 IPart=  5 NShTot=           0 NBatch=           0 AvBLen=         0.0
 PrsmSu-ThDecC:  IPartSL=    5    0 NPrtUSL=   12    1 IThBeg=    0 IThEnd=   11 CPU=   -1 GPU=   -1 NThAct=    5.
 IPart=  7 NShTot=           0 NBatch=           0 AvBLen=         0.0
 IPart= 11 NShTot=           0 NBatch=           0 AvBLen=         0.0
 PrsmSu-ThDecC:  IPartSL=    7    0 NPrtUSL=   12    1 IThBeg=    0 IThEnd=   11 CPU=   -1 GPU=   -1 NThAct=    4.
 PrsmSu-ThDecC:  IPartSL=   11    0 NPrtUSL=   12    1 IThBeg=    0 IThEnd=   11 CPU=   -1 GPU=   -1 NThAct=    3.
 IPart=  1 NShTot=           2 NBatch=           2 AvBLen=         1.0
 PrsmSu-ThDecC:  IPartSL=    1    0 NPrtUSL=   12    1 IThBeg=    0 IThEnd=   11 CPU=   -1 GPU=   -1 NThAct=    2.
 IPart=  2 NShTot=           1 NBatch=           1 AvBLen=         1.0
 PrsmSu-ThDecC:  IPartSL=    2    0 NPrtUSL=   12    1 IThBeg=    0 IThEnd=   11 CPU=   -1 GPU=   -1 NThAct=    1.
 PrSmSu:  NxtVal=             13.
 *** Overlap *** 
                1             2             3             4             5 
      1  0.100000D+01
      2  0.771982D-01  0.100000D+01
      3  0.412772D+00  0.241137D+00  0.100000D+01
      4  0.000000D+00  0.000000D+00  0.000000D+00  0.100000D+01
      5  0.000000D+00  0.000000D+00  0.000000D+00  0.000000D+00  0.100000D+01
      6 -0.525321D+00  0.000000D+00  0.000000D+00  0.000000D+00  0.000000D+00
                6 
      6  0.100000D+01
 *** Kinetic Energy *** 
                1             2             3             4             5 
      1  0.760032D+00
      2 -0.167562D-01  0.357679D+01
      3  0.469315D-01 -0.202374D-01  0.102163D+00
      4  0.000000D+00  0.000000D+00  0.000000D+00  0.319682D+00
      5  0.000000D+00  0.000000D+00  0.000000D+00  0.000000D+00  0.319682D+00
      6 -0.139729D+00  0.000000D+00  0.000000D+00  0.000000D+00  0.000000D+00
                6 
      6  0.319682D+00
 Entering OneElI...
 OneElI was handed  4294967206 working-precision words.
 Calculate potential energy integrals
    NBasis =   6  MinDer = 0  MaxDer = 0
 Requested accuracy = 0.1000D-12
 ShPair: Thresh= 1.00D-13 NBox=     0 BxSize= 0.00D+00 RnKept= 2.89D+00
         NSMCal=                    6 NSMKep=                   6
 PrmmSu-InSpLW:  IPartL=    0 NPrtUS=   12 NPrtUL=    1 DoSpLW=F IThBeg=    0 IThEnd=   11 NThAct=   12.
 PrSmSu:  IncTry=   512 NBBP=             12 NTPThr=   100 NPartT=   12 Incr=           1 LDynOK=F GPUOK=F.
 PrsmSu:  NPrtUS=  12 ThrOK=T IAlg=1 LenDen=           0 ISkipM=0 DoSpLW=F IThBeg=    0 IThEnd=   11.
 Prism:   IPart=     0 DynPar=F LinDyn=F Incr=           1.
 PRISM was handed   357912795 working-precision words and     6 shell-pairs
 PRISM was handed   357912795 working-precision words and     6 shell-pairs
 PRISM was handed   357912795 working-precision words and     6 shell-pairs
 PRISM was handed   357912795 working-precision words and     6 shell-pairs
 PRISM was handed   357912795 working-precision words and     6 shell-pairs
 PRISM was handed   357912795 working-precision words and     6 shell-pairs
 PRISM was handed   357912795 working-precision words and     6 shell-pairs
 PRISM was handed   357912795 working-precision words and     6 shell-pairs
 PRISM was handed   357912795 working-precision words and     6 shell-pairs
 PRISM was handed   357912795 working-precision words and     6 shell-pairs
 PRISM was handed   357912795 working-precision words and     6 shell-pairs
 PRISM was handed   357912795 working-precision words and     6 shell-pairs
 IPart=  6 NShTot=           0 NBatch=           0 AvBLen=         0.0
 PrsmSu-ThDecC:  IPartSL=    6    0 NPrtUSL=   12    1 IThBeg=    0 IThEnd=   11 CPU=   -1 GPU=   -1 NThAct=   12.
 IPart=  2 NShTot=           2 NBatch=           1 AvBLen=         2.0
 PrsmSu-ThDecC:  IPartSL=    2    0 NPrtUSL=   12    1 IThBeg=    0 IThEnd=   11 CPU=   -1 GPU=   -1 NThAct=   11.
 IPart=  0 NShTot=           6 NBatch=           3 AvBLen=         2.0
 PrsmSu-ThDecC:  IPartSL=    0    0 NPrtUSL=   12    1 IThBeg=    0 IThEnd=   11 CPU=   -1 GPU=   -1 NThAct=   10.
 IPart=  3 NShTot=           0 NBatch=           0 AvBLen=         0.0
 PrsmSu-ThDecC:  IPartSL=    3    0 NPrtUSL=   12    1 IThBeg=    0 IThEnd=   11 CPU=   -1 GPU=   -1 NThAct=    9.
 IPart=  9 NShTot=           0 NBatch=           0 AvBLen=         0.0
 PrsmSu-ThDecC:  IPartSL=    9    0 NPrtUSL=   12    1 IThBeg=    0 IThEnd=   11 CPU=   -1 GPU=   -1 NThAct=    8.
 IPart=  8 NShTot=           0 NBatch=           0 AvBLen=         0.0
 PrsmSu-ThDecC:  IPartSL=    8    0 NPrtUSL=   12    1 IThBeg=    0 IThEnd=   11 CPU=   -1 GPU=   -1 NThAct=    7.
 IPart=  4 NShTot=           0 NBatch=           0 AvBLen=         0.0
 PrsmSu-ThDecC:  IPartSL=    4    0 NPrtUSL=   12    1 IThBeg=    0 IThEnd=   11 CPU=   -1 GPU=   -1 NThAct=    6.
 IPart= 10 NShTot=           0 NBatch=           0 AvBLen=         0.0
 PrsmSu-ThDecC:  IPartSL=   10    0 NPrtUSL=   12    1 IThBeg=    0 IThEnd=   11 CPU=   -1 GPU=   -1 NThAct=    5.
 IPart= 11 NShTot=           0 NBatch=           0 AvBLen=         0.0
 PrsmSu-ThDecC:  IPartSL=   11    0 NPrtUSL=   12    1 IThBeg=    0 IThEnd=   11 CPU=   -1 GPU=   -1 NThAct=    4.
 IPart=  5 NShTot=           0 NBatch=           0 AvBLen=         0.0
 PrsmSu-ThDecC:  IPartSL=    5    0 NPrtUSL=   12    1 IThBeg=    0 IThEnd=   11 CPU=   -1 GPU=   -1 NThAct=    3.
 IPart=  7 NShTot=           0 NBatch=           0 AvBLen=         0.0
 PrsmSu-ThDecC:  IPartSL=    7    0 NPrtUSL=   12    1 IThBeg=    0 IThEnd=   11 CPU=   -1 GPU=   -1 NThAct=    2.
 IPart=  1 NShTot=           4 NBatch=           2 AvBLen=         2.0
 PrsmSu-ThDecC:  IPartSL=    1    0 NPrtUSL=   12    1 IThBeg=    0 IThEnd=   11 CPU=   -1 GPU=   -1 NThAct=    1.
 PrSmSu:  NxtVal=             13.
 ***** Potential Energy ***** 
                1             2             3             4             5 
      1  0.226053D+01
      2  0.335239D+00  0.832875D+01
      3  0.784550D+00  0.104774D+01  0.150579D+01
      4  0.000000D+00  0.000000D+00  0.000000D+00  0.146212D+01
      5  0.000000D+00  0.000000D+00  0.000000D+00  0.000000D+00  0.146212D+01
      6 -0.101278D+01 -0.175982D-01 -0.125932D+00  0.000000D+00  0.000000D+00
                6 
      6  0.156336D+01
 ****** Core Hamiltonian ****** 
                1             2             3             4             5 
      1 -0.150049D+01
      2 -0.351996D+00 -0.475196D+01
      3 -0.737619D+00 -0.106797D+01 -0.140362D+01
      4  0.000000D+00  0.000000D+00  0.000000D+00 -0.114244D+01
      5  0.000000D+00  0.000000D+00  0.000000D+00  0.000000D+00 -0.114244D+01
      6  0.873047D+00  0.175982D-01  0.125932D+00  0.000000D+00  0.000000D+00
                6 
      6 -0.124368D+01
 SSO for IR=          1
                 1             2             3             4             5 
      1   0.100000D+01  0.771982D-01  0.412772D+00  0.000000D+00  0.000000D+00
      2   0.771982D-01  0.100000D+01  0.241137D+00  0.000000D+00  0.000000D+00
      3   0.412772D+00  0.241137D+00  0.100000D+01  0.000000D+00  0.000000D+00
      4   0.000000D+00  0.000000D+00  0.000000D+00  0.100000D+01  0.000000D+00
      5   0.000000D+00  0.000000D+00  0.000000D+00  0.000000D+00  0.100000D+01
      6  -0.525321D+00  0.000000D+00  0.000000D+00  0.000000D+00  0.000000D+00
                 6 
      1  -0.525321D+00
      2   0.000000D+00
      3   0.000000D+00
      4   0.000000D+00
      5   0.000000D+00
      6   0.100000D+01
 SVDSVc IOpt=   1 NormSV=T IR=1
 SVDSVc V= 1.71D+00 1.17D+00 1.00D+00 1.00D+00 7.98D-01 3.28D-01
 V for IR=          1
                 1             2             3             4             5 
      1   0.679298D+00 -0.173725D+00  0.000000D+00  0.000000D+00 -0.149090D+00
      2   0.236902D+00  0.646485D+00  0.000000D+00  0.000000D+00  0.720298D+00
      3   0.477281D+00  0.503692D+00  0.000000D+00  0.000000D+00 -0.555422D+00
      4   0.000000D+00  0.000000D+00  0.000000D+00  0.100000D+01  0.000000D+00
      5   0.000000D+00  0.000000D+00  0.100000D+01  0.000000D+00  0.000000D+00
      6  -0.504614D+00  0.546051D+00  0.000000D+00  0.000000D+00 -0.387878D+00
                 6 
      1   0.697242D+00
      2   0.842937D-01
      3  -0.458262D+00
      4   0.000000D+00
      5   0.000000D+00
      6   0.544742D+00
 Vt*S*V: 
                1             2             3             4             5 
      1  0.100000D+01
      2  0.000000D+00  0.100000D+01
      3  0.000000D+00  0.000000D+00  0.100000D+01
      4  0.000000D+00  0.000000D+00  0.000000D+00  0.100000D+01
      5  0.000000D+00  0.000000D+00  0.000000D+00  0.000000D+00  0.100000D+01
      6  0.000000D+00  0.000000D+00  0.000000D+00  0.000000D+00  0.000000D+00
                6 
      6  0.100000D+01
 TstOVc:  Largest diagonal error= 1.55D-15 IB=1 I=    1.
 TstOVc:  Largest same sym error= 4.16D-16 IB=1 I=    6 J=    2.
 Orthogonalized basis functions: 
                 1             2             3             4             5 
      1   0.519902D+00 -0.160806D+00  0.000000D+00  0.000000D+00 -0.166888D+00
      2   0.181313D+00  0.598410D+00  0.000000D+00  0.000000D+00  0.806286D+00
      3   0.365288D+00  0.466236D+00  0.000000D+00  0.000000D+00 -0.621727D+00
      4   0.000000D+00  0.000000D+00  0.000000D+00  0.100000D+01  0.000000D+00
      5   0.000000D+00  0.000000D+00  0.100000D+01  0.000000D+00  0.000000D+00
      6  -0.386207D+00  0.505444D+00  0.000000D+00  0.000000D+00 -0.434182D+00
                 6 
      1   0.121815D+01
      2   0.147270D+00
      3  -0.800629D+00
      4   0.000000D+00
      5   0.000000D+00
      6   0.951719D+00
 NBasis=     6 RedAO= T EigKep=  3.28D-01  NBF=     6
 NBsUse=     6 1.00D-06 EigRej= -1.00D+00 NBFU=     6
 Leave Link  302 at Sun Jun  7 12:39:17 2020, MaxMem=  4294967296 cpu:               1.2 elap:               0.1
 (Enter /opt/gaussian/gdv-20180628-i14+/gdv/l303.exe)
 GetPCM: File not found, return IValue=0.
 DipDrv:  MaxL=1.
 MemDpI: Int=      800000 Cav=           0 CFW=           0 Tot=      800000
 DipPsm:  J= 1 NJ= 4 MaxL=1 MMat= 4 MaxMat= 4.
 DipInt: DoE/N= T F RetVal/Mat= F T Init=T NMatP=  4 IDeriv=0 Min/MaxMlt=  0  1
 Entering OneElI...
 OneElI was handed  4294967211 working-precision words.
 Multipole integrals L=0 to 1 MinM= 0 MaxM= 3.
 Requested accuracy = 0.1000D-12
 ShPair: Thresh= 1.00D-13 NBox=     0 BxSize= 0.00D+00 RnKept= 2.89D+00
         NSMCal=                    6 NSMKep=                   6
 PrmmSu-InSpLW:  IPartL=    0 NPrtUS=    1 NPrtUL=    1 DoSpLW=F IThBeg=    0 IThEnd=    0 NThAct=    1.
 PrSmSu:  IncTry=   512 NBBP=              6 NTPThr=   100 NPartT=    1 Incr=           1 LDynOK=F GPUOK=F.
 PrsmSu:  NPrtUS=   1 ThrOK=F IAlg=2 LenDen=           0 ISkipM=0 DoSpLW=F IThBeg=    0 IThEnd=    0.
 Prism:   IPart=     0 DynPar=F LinDyn=F Incr=           1.
 PRISM was handed  4294965323 working-precision words and     6 shell-pairs
 IPart=  0 NShTot=           6 NBatch=           3 AvBLen=         2.0
 PrsmSu-ThDecC:  IPartSL=    0    0 NPrtUSL=    1    1 IThBeg=    0 IThEnd=    0 CPU=   -1 GPU=   -1 NThAct=    1.
 PrSmSu:  NxtVal=              2.
 Multipole matrices IBuc=  518 IX=    1 IJ=           1:
                1             2             3             4             5 
      1  0.000000D+00
      2  0.000000D+00  0.000000D+00
      3  0.000000D+00  0.000000D+00  0.000000D+00
      4  0.347264D+00  0.147240D+00  0.180330D+01  0.000000D+00
      5  0.000000D+00  0.000000D+00  0.000000D+00  0.000000D+00  0.000000D+00
      6  0.000000D+00  0.000000D+00  0.000000D+00  0.000000D+00  0.000000D+00
                6 
      6  0.000000D+00
 Multipole matrices IBuc=  518 IX=    2 IJ=           1:
                1             2             3             4             5 
      1  0.000000D+00
      2  0.000000D+00  0.000000D+00
      3  0.000000D+00  0.000000D+00  0.000000D+00
      4  0.000000D+00  0.000000D+00  0.000000D+00  0.000000D+00
      5  0.347264D+00  0.147240D+00  0.180330D+01  0.000000D+00  0.000000D+00
      6  0.000000D+00  0.000000D+00  0.000000D+00  0.000000D+00  0.000000D+00
                6 
      6  0.000000D+00
 Multipole matrices IBuc=  518 IX=    3 IJ=           1:
                1             2             3             4             5 
      1 -0.144564D+01
      2  0.698659D-01  0.144564D+01
      3 -0.341601D+00  0.348597D+00  0.144564D+01
      4  0.000000D+00  0.000000D+00  0.000000D+00  0.144564D+01
      5  0.000000D+00  0.000000D+00  0.000000D+00  0.000000D+00  0.144564D+01
      6  0.667143D+00  0.147240D+00  0.180330D+01  0.000000D+00  0.000000D+00
                6 
      6  0.144564D+01
 ReDoC1: IPurDI=1 IPurFI=1 IPurDO=0 IPurFO=0.
 Fermi contact integrals: 
                 1             2 
      1   0.628247D+00  0.218027D-01
      2   0.347598D-03  0.200736D+01
      3   0.537557D-01  0.683754D-01
      4   0.000000D+00  0.000000D+00
      5   0.000000D+00  0.000000D+00
      6  -0.928378D-01  0.000000D+00
 Leave Link  303 at Sun Jun  7 12:39:17 2020, MaxMem=  4294967296 cpu:               0.3 elap:               0.0
 (Enter /opt/gaussian/gdv-20180628-i14+/gdv/l308.exe)
 Dipole velocity integrals will be written to rwf   572.
 Entering OneElI...
 OneElI was handed  4294967044 working-precision words.
 Calculate R x Del and Del integrals.
    NBasis =     6  MinDer = 0  MaxDer = 0
 Requested accuracy = 0.1000D-12
 ShPair: Thresh= 1.00D-13 NBox=     0 BxSize= 0.00D+00 RnKept= 2.89D+00
         NSMCal=                    6 NSMKep=                   6
 PrmmSu-InSpLW:  IPartL=    0 NPrtUS=    1 NPrtUL=    1 DoSpLW=F IThBeg=    0 IThEnd=    0 NThAct=    1.
 PrSmSu:  IncTry=   512 NBBP=              6 NTPThr=   100 NPartT=    1 Incr=           1 LDynOK=F GPUOK=F.
 PrsmSu:  NPrtUS=   1 ThrOK=F IAlg=2 LenDen=           0 ISkipM=0 DoSpLW=F IThBeg=    0 IThEnd=    0.
 Prism:   IPart=     0 DynPar=F LinDyn=F Incr=           1.
 PRISM was handed  4294965120 working-precision words and     6 shell-pairs
 IPart=  0 NShTot=           6 NBatch=           3 AvBLen=         2.0
 PrsmSu-ThDecC:  IPartSL=    0    0 NPrtUSL=    1    1 IThBeg=    0 IThEnd=    0 CPU=   -1 GPU=   -1 NThAct=    1.
 PrSmSu:  NxtVal=              2.
 Dipole Velocity for IMat=    1:
                1             2             3             4             5 
      1  0.000000D+00
      2  0.000000D+00  0.000000D+00
      3  0.000000D+00  0.000000D+00  0.000000D+00
      4 -0.181692D+00 -0.359129D+00 -0.231959D+00  0.000000D+00
      5  0.000000D+00  0.000000D+00  0.000000D+00  0.000000D+00  0.000000D+00
      6  0.000000D+00  0.000000D+00  0.000000D+00  0.000000D+00  0.000000D+00
                6 
      6  0.000000D+00
 Dipole Velocity for IMat=    2:
                1             2             3             4             5 
      1  0.000000D+00
      2  0.000000D+00  0.000000D+00
      3  0.000000D+00  0.000000D+00  0.000000D+00
      4  0.000000D+00  0.000000D+00  0.000000D+00  0.000000D+00
      5 -0.181692D+00 -0.359129D+00 -0.231959D+00  0.000000D+00  0.000000D+00
      6  0.000000D+00  0.000000D+00  0.000000D+00  0.000000D+00  0.000000D+00
                6 
      6  0.000000D+00
 Dipole Velocity for IMat=    3:
                1             2             3             4             5 
      1  0.000000D+00
      2 -0.866449D-01  0.000000D+00
      3 -0.132270D+00  0.000000D+00  0.000000D+00
      4  0.000000D+00  0.000000D+00  0.000000D+00  0.000000D+00
      5  0.000000D+00  0.000000D+00  0.000000D+00  0.000000D+00  0.000000D+00
      6  0.879841D-01 -0.359129D+00 -0.231959D+00  0.000000D+00  0.000000D+00
                6 
      6  0.000000D+00
 R x Del for IMat=    1:
                1             2             3             4             5 
      1  0.000000D+00
      2  0.000000D+00  0.000000D+00
      3  0.000000D+00  0.000000D+00  0.000000D+00
      4  0.000000D+00  0.000000D+00  0.000000D+00  0.000000D+00
      5 -0.262661D+00  0.519171D+00  0.335329D+00  0.000000D+00  0.000000D+00
      6  0.000000D+00  0.000000D+00  0.000000D+00  0.000000D+00 -0.100000D+01
                6 
      6  0.000000D+00
 R x Del for IMat=    2:
                1             2             3             4             5 
      1  0.000000D+00
      2  0.000000D+00  0.000000D+00
      3  0.000000D+00  0.000000D+00  0.000000D+00
      4  0.262661D+00 -0.519171D+00 -0.335329D+00  0.000000D+00
      5  0.000000D+00  0.000000D+00  0.000000D+00  0.000000D+00  0.000000D+00
      6  0.000000D+00  0.000000D+00  0.000000D+00  0.100000D+01  0.000000D+00
                6 
      6  0.000000D+00
 R x Del for IMat=    3:
                1             2             3             4             5 
      1  0.000000D+00
      2  0.000000D+00  0.000000D+00
      3  0.000000D+00  0.000000D+00  0.000000D+00
      4  0.000000D+00  0.000000D+00  0.000000D+00  0.000000D+00
      5  0.000000D+00  0.000000D+00  0.000000D+00 -0.100000D+01  0.000000D+00
      6  0.000000D+00  0.000000D+00  0.000000D+00  0.000000D+00  0.000000D+00
                6 
      6  0.000000D+00
< mu | del r + r del | nu > integrals: XX
                1             2             3             4             5 
      1  0.000000D+00
      2  0.483287D-01  0.000000D+00
      3 -0.236297D+00 -0.240169D+00  0.000000D+00
      4  0.000000D+00  0.000000D+00  0.000000D+00  0.000000D+00
      5  0.000000D+00  0.000000D+00  0.000000D+00  0.000000D+00  0.000000D+00
      6  0.221272D+00  0.000000D+00  0.000000D+00  0.000000D+00  0.000000D+00
                6 
      6  0.000000D+00
< mu | del r + r del | nu > integrals: YY
                1             2             3             4             5 
      1  0.000000D+00
      2  0.483287D-01  0.000000D+00
      3 -0.236297D+00 -0.240169D+00  0.000000D+00
      4  0.000000D+00  0.000000D+00  0.000000D+00  0.000000D+00
      5  0.000000D+00  0.000000D+00  0.000000D+00  0.000000D+00  0.000000D+00
      6  0.221272D+00  0.000000D+00  0.000000D+00  0.000000D+00  0.000000D+00
                6 
      6  0.000000D+00
< mu | del r + r del | nu > integrals: ZZ
                1             2             3             4             5 
      1  0.000000D+00
      2 -0.863439D-01  0.000000D+00
      3 -0.934344D-02 -0.240169D+00  0.000000D+00
      4  0.000000D+00  0.000000D+00  0.000000D+00  0.000000D+00
      5  0.000000D+00  0.000000D+00  0.000000D+00  0.000000D+00  0.000000D+00
      6 -0.154943D+00 -0.103834D+01 -0.670658D+00  0.000000D+00  0.000000D+00
                6 
      6  0.000000D+00
< mu | del r + r del | nu > integrals: XY
                1             2             3             4             5 
      1  0.000000D+00
      2  0.000000D+00  0.000000D+00
      3  0.000000D+00  0.000000D+00  0.000000D+00
      4  0.000000D+00  0.000000D+00  0.000000D+00  0.000000D+00
      5  0.000000D+00  0.000000D+00  0.000000D+00  0.000000D+00  0.000000D+00
      6  0.000000D+00  0.000000D+00  0.000000D+00  0.000000D+00  0.000000D+00
                6 
      6  0.000000D+00
< mu | del r + r del | nu > integrals: XZ
                1             2             3             4             5 
      1  0.000000D+00
      2  0.000000D+00  0.000000D+00
      3  0.000000D+00  0.000000D+00  0.000000D+00
      4 -0.413890D-01 -0.519171D+00 -0.335329D+00  0.000000D+00
      5  0.000000D+00  0.000000D+00  0.000000D+00  0.000000D+00  0.000000D+00
      6  0.000000D+00  0.000000D+00  0.000000D+00  0.000000D+00  0.000000D+00
                6 
      6  0.000000D+00
< mu | del r + r del | nu > integrals: YZ
                1             2             3             4             5 
      1  0.000000D+00
      2  0.000000D+00  0.000000D+00
      3  0.000000D+00  0.000000D+00  0.000000D+00
      4  0.000000D+00  0.000000D+00  0.000000D+00  0.000000D+00
      5 -0.413890D-01 -0.519171D+00 -0.335329D+00  0.000000D+00  0.000000D+00
      6  0.000000D+00  0.000000D+00  0.000000D+00  0.000000D+00  0.000000D+00
                6 
      6  0.000000D+00
 Leave Link  308 at Sun Jun  7 12:39:17 2020, MaxMem=  4294967296 cpu:               0.3 elap:               0.0
 (Enter /opt/gaussian/gdv-20180628-i14+/gdv/l401.exe)
 Initial guess wavefunction:
 SetAtRh:  ITypeU=  14 NETotI=       4 ICharg=  0 NETot=       4.
 StAtR1:  I=    1 I1=    1 IA=  1 C=   1.0 OKShel=T
                                                  S
                                                  1
 StAtR1:  I=    2 I1=    2 IA=  3 C=   3.0 OKShel=TT
                                                  SS
                                                  21
          I=    1 IA=  1 I1=    1 NAtG=10 NE=   1.000 C=   1.000 Err=-1.35D-12
          I=    2 IA=  3 I1=    2 NAtG=13 NE=   3.000 C=   3.000 Err= 3.49D-12
 ShPair: Thresh= 1.00D-12 NBox=     0 BxSize= 0.00D+00 RnKept= 2.89D+00
         NSMCal=                    6 NSMKep=                   6
 ReadGW:  IGet=1 IStart=           1 Next=           1 LGW=           0.
 ExpMin= 4.81D-02 ExpMax= 1.61D+01 ExpMxC= 1.61D+01 IAcc=3 IRadAn=         5 AccDes= 0.00D+00
 Harris functional with IExCor=  205 and IRadAn=       5 diagonalized for initial guess.
 HarFok:  IExCor=  205 AccDes= 0.00D+00 IRadAn=         5 IDoV= 1 UseB2=F ITyADJ=14
 ICtDFT=  3500011 ScaDFX=  1.000000  1.000000  1.000000  1.000000
 Pruned (  99, 590) grid will be used in numerical quadrature.
 CkSvGd:  ISavGI=        -1 IRadAn=       5 IRASav=       0 ISavGd=        -1.
 SetAtRh:  ITypeU=  13 NETotI=       4 ICharg=  0 NETot=       4.
 StAtR1:  I=    1 I1=    1 IA=  1 C=   1.0 OKShel=T
                                                  S
                                                  1
 StAtR1:  I=    2 I1=    2 IA=  3 C=   3.0 OKShel=TT
                                                  SS
                                                  21
          I=    1 IA=  1 I1=    1 NAtG= 9 NE=   1.000 C=   1.000 Err=-2.15D-12
          I=    2 IA=  3 I1=    2 NAtG=11 NE=   3.000 C=   3.000 Err= 3.44D-12
 CalDSu-InSpLW:  IPartL=    0 NPrtUS=   12 NPrtUL=    1 DoSpLW=F IThBeg=    0 IThEnd=   11 NThAct=   12.
 CalDSu:  NPrtUS=  12 ThrOK=T IAlg=2 DoDPD=F LenP=          21 LenD1P=             0 GPUOK=F
          ISkipM=0 DoSpLW=F IThBeg=    0 IThEnd=   11.
 IPart=  0 IRanGd=          0 ScrnBf=T ScrnGd=T RCrit=4.00D+00 DoMicB=T.
 CutRad = 1000.00    CtRdIn =    0.00    XCrit =  15.00   ICut = 0
 IPart= 10 IRanGd=          0 ScrnBf=T ScrnGd=T RCrit=4.00D+00 DoMicB=T.
 CutRad = 1000.00    CtRdIn =    0.00    XCrit =  15.00   ICut = 0
 Pruned (  99, 590) grid will be used in numerical quadrature.
 IPart=  6 IRanGd=          0 ScrnBf=T ScrnGd=T RCrit=4.00D+00 DoMicB=T.
 CutRad = 1000.00    CtRdIn =    0.00    XCrit =  15.00   ICut = 0
 Pruned (  99, 590) grid will be used in numerical quadrature.
 Pruned (  99, 590) grid will be used in numerical quadrature.
 IPart=  8 IRanGd=          0 ScrnBf=T ScrnGd=T RCrit=4.00D+00 DoMicB=T.
 IPart=  0 Atom number   1 atomic number  1 has       22862 grid points.
 CutRad = 1000.00    CtRdIn =    0.00    XCrit =  15.00   ICut = 0
 IPart=  6 Atom number   1 atomic number  1 has       22862 grid points.
 IPart= 10 Atom number   1 atomic number  1 has       22862 grid points.
 IPart=  2 IRanGd=          0 ScrnBf=T ScrnGd=T RCrit=4.00D+00 DoMicB=T.
 At   1 B   1: 100.0% Sh 100.0 % Bf    1 runs, min    6 max    6 av    6.0
 IPart= 10 Atom   1 batch    1 overlaps    2 atoms,     3 shells and     2 DB shells.   NGrid=      2838
 CutRad = 1000.00    CtRdIn =    0.00    XCrit =  15.00   ICut = 0
 At   1 B   3: 100.0% Sh 100.0 % Bf    1 runs, min    6 max    6 av    6.0
 IPart=  6 Atom   1 batch    3 overlaps    2 atoms,     3 shells and     2 DB shells.   NGrid=      2416
 At   1 B   2: 100.0% Sh 100.0 % Bf    1 runs, min    6 max    6 av    6.0
 IPart=  0 Atom   1 batch    2 overlaps    2 atoms,     3 shells and     2 DB shells.   NGrid=      1552
 Pruned (  99, 590) grid will be used in numerical quadrature.
 Pruned (  99, 590) grid will be used in numerical quadrature.
 IPart=  2 Atom number   1 atomic number  1 has       22862 grid points.
 IPart=  8 Atom number   1 atomic number  1 has       22862 grid points.
 At   1 B   5: 100.0% Sh 100.0 % Bf    1 runs, min    6 max    6 av    6.0
 IPart=  2 Atom   1 batch    5 overlaps    2 atoms,     3 shells and     2 DB shells.   NGrid=      1180
 At   1 B   4: 100.0% Sh 100.0 % Bf    1 runs, min    6 max    6 av    6.0
 IPart=  8 Atom   1 batch    4 overlaps    2 atoms,     3 shells and     2 DB shells.   NGrid=      1180
 Symmetry reduced    86 angular points to    86 for atom    1.
 IPart=  5 IRanGd=          0 ScrnBf=T ScrnGd=T RCrit=4.00D+00 DoMicB=T.
 Symmetry reduced   590 angular points to   590 for atom    1.
 Symmetry reduced   590 angular points to   590 for atom    1.
 CutRad = 1000.00    CtRdIn =    0.00    XCrit =  15.00   ICut = 0
 IPart=  7 IRanGd=          0 ScrnBf=T ScrnGd=T RCrit=4.00D+00 DoMicB=T.
 IPart= 11 IRanGd=          0 ScrnBf=T ScrnGd=T RCrit=4.00D+00 DoMicB=T.
 CutRad = 1000.00    CtRdIn =    0.00    XCrit =  15.00   ICut = 0
 IPart=  3 IRanGd=          0 ScrnBf=T ScrnGd=T RCrit=4.00D+00 DoMicB=T.
 IPart=  1 IRanGd=          0 ScrnBf=T ScrnGd=T RCrit=4.00D+00 DoMicB=T.
 CutRad = 1000.00    CtRdIn =    0.00    XCrit =  15.00   ICut = 0
 CutRad = 1000.00    CtRdIn =    0.00    XCrit =  15.00   ICut = 0
 Pruned (  99, 590) grid will be used in numerical quadrature.
 IPart=  4 IRanGd=          0 ScrnBf=T ScrnGd=T RCrit=4.00D+00 DoMicB=T.
 Symmetry reduced   302 angular points to   302 for atom    1.
 CutRad = 1000.00    CtRdIn =    0.00    XCrit =  15.00   ICut = 0
 IPart=  5 Atom number   1 atomic number  1 has       22862 grid points.
 Pruned (  99, 590) grid will be used in numerical quadrature.
 At   1 B   6: 100.0% Sh 100.0 % Bf    1 runs, min    6 max    6 av    6.0
 IPart=  5 Atom   1 batch    6 overlaps    2 atoms,     3 shells and     2 DB shells.   NGrid=      1180
 IPart=  3 Atom number   1 atomic number  1 has       22862 grid points.
 Symmetry reduced   194 angular points to   194 for atom    1.
 At   1 B   8: 100.0% Sh 100.0 % Bf    1 runs, min    6 max    6 av    6.0
 IPart=  3 Atom   1 batch    8 overlaps    2 atoms,     3 shells and     2 DB shells.   NGrid=      1180
 Symmetry reduced   590 angular points to   590 for atom    1.
 CutRad = 1000.00    CtRdIn =    0.00    XCrit =  15.00   ICut = 0
 Symmetry reduced   590 angular points to   590 for atom    1.
 Pruned (  99, 590) grid will be used in numerical quadrature.
 IPart= 11 Atom number   1 atomic number  1 has       22862 grid points.
 At   1 B   7: 100.0% Sh 100.0 % Bf    1 runs, min    6 max    6 av    6.0
 IPart= 11 Atom   1 batch    7 overlaps    2 atoms,     3 shells and     2 DB shells.   NGrid=      1180
 Symmetry reduced   590 angular points to   590 for atom    1.
 IPart=  9 IRanGd=          0 ScrnBf=T ScrnGd=T RCrit=4.00D+00 DoMicB=T.
 Pruned (  99, 590) grid will be used in numerical quadrature.
 CutRad = 1000.00    CtRdIn =    0.00    XCrit =  15.00   ICut = 0
 IPart=  7 Atom number   1 atomic number  1 has       22862 grid points.
 At   1 B   9: 100.0% Sh 100.0 % Bf    1 runs, min    6 max    6 av    6.0
 IPart=  7 Atom   1 batch    9 overlaps    2 atoms,     3 shells and     2 DB shells.   NGrid=      1180
 Pruned (  99, 590) grid will be used in numerical quadrature.
 IPart=  9 Atom number   1 atomic number  1 has       22862 grid points.
 Symmetry reduced   590 angular points to   590 for atom    1.
 At   1 B  10: 100.0% Sh 100.0 % Bf    1 runs, min    6 max    6 av    6.0
 IPart=  9 Atom   1 batch   10 overlaps    2 atoms,     3 shells and     2 DB shells.   NGrid=      1180
 Symmetry reduced   590 angular points to   590 for atom    1.
 Pruned (  99, 590) grid will be used in numerical quadrature.
 IPart=  1 Atom number   1 atomic number  1 has       22862 grid points.
 At   1 B  11: 100.0% Sh 100.0 % Bf    1 runs, min    6 max    6 av    6.0
 IPart=  1 Atom   1 batch   11 overlaps    2 atoms,     3 shells and     2 DB shells.   NGrid=      1180
 Symmetry reduced   590 angular points to   590 for atom    1.
 Pruned (  99, 590) grid will be used in numerical quadrature.
 IPart=  4 Atom number   1 atomic number  1 has       22862 grid points.
 At   1 B  12: 100.0% Sh 100.0 % Bf    1 runs, min    6 max    6 av    6.0
 IPart=  4 Atom   1 batch   12 overlaps    2 atoms,     3 shells and     2 DB shells.   NGrid=      1180
 Symmetry reduced   590 angular points to   590 for atom    1.
 At   1 B  13: 100.0% Sh 100.0 % Bf    1 runs, min    6 max    6 av    6.0
 IPart=  3 Atom   1 batch   13 overlaps    2 atoms,     3 shells and     2 DB shells.   NGrid=       604
 At   1 B  14: 100.0% Sh 100.0 % Bf    1 runs, min    6 max    6 av    6.0
 IPart=  2 Atom   1 batch   14 overlaps    2 atoms,     3 shells and     2 DB shells.   NGrid=       604
 At   1 B  15: 100.0% Sh 100.0 % Bf    1 runs, min    6 max    6 av    6.0
 IPart=  8 Atom   1 batch   15 overlaps    2 atoms,     3 shells and     2 DB shells.   NGrid=       604
 Symmetry reduced   302 angular points to   302 for atom    1.
 Symmetry reduced   302 angular points to   302 for atom    1.
 Symmetry reduced   302 angular points to   302 for atom    1.
 At   1 B  16: 100.0% Sh 100.0 % Bf    1 runs, min    6 max    6 av    6.0
 IPart=  7 Atom   1 batch   16 overlaps    2 atoms,     3 shells and     2 DB shells.   NGrid=       604
 Symmetry reduced   302 angular points to   302 for atom    1.
 At   1 B  17: 100.0% Sh 100.0 % Bf    1 runs, min    6 max    6 av    6.0
 IPart=  4 Atom   1 batch   17 overlaps    2 atoms,     3 shells and     2 DB shells.   NGrid=       604
 Symmetry reduced   302 angular points to   302 for atom    1.
 At   1 B  18:  66.7% Sh  83.3 % Bf    2 runs, min    1 max    4 av    2.5
 IPart=  9 Atom   1 batch   18 overlaps    2 atoms,     2 shells and     2 DB shells.   NGrid=       604
 At   1 B  19:  33.3% Sh  66.7 % Bf    1 runs, min    4 max    4 av    4.0
 IPart=  5 Atom   1 batch   19 overlaps    2 atoms,     1 shells and     2 DB shells.   NGrid=       604
 Symmetry reduced   302 angular points to   302 for atom    1.
 At   1 B  20:  33.3% Sh  66.7 % Bf    1 runs, min    4 max    4 av    4.0
 IPart=  0 Atom   1 batch   20 overlaps    2 atoms,     1 shells and     1 DB shells.   NGrid=       604
 Symmetry reduced   302 angular points to   302 for atom    1.
 At   1 B  21:  33.3% Sh  66.7 % Bf    1 runs, min    4 max    4 av    4.0
 IPart=  1 Atom   1 batch   21 overlaps    2 atoms,     1 shells and     1 DB shells.   NGrid=       604
 Symmetry reduced   302 angular points to   302 for atom    1.
 Pruned (  99, 590) grid will be used in numerical quadrature.
 Symmetry reduced   302 angular points to   302 for atom    1.
 IPart= 11 Atom number   2 atomic number  3 has       20094 grid points.
 At   2 B   1: 100.0% Sh 100.0 % Bf    1 runs, min    6 max    6 av    6.0
 IPart= 11 Atom   2 batch    1 overlaps    2 atoms,     3 shells and     2 DB shells.   NGrid=      2408
 Pruned (  99, 590) grid will be used in numerical quadrature.
 IPart=  1 Atom number   2 atomic number  3 has       20094 grid points.
 Symmetry reduced    86 angular points to    86 for atom    2.
 At   2 B   2: 100.0% Sh 100.0 % Bf    1 runs, min    6 max    6 av    6.0
 IPart=  1 Atom   2 batch    2 overlaps    2 atoms,     3 shells and     2 DB shells.   NGrid=      2522
 Symmetry reduced   194 angular points to   194 for atom    2.
 Pruned (  99, 590) grid will be used in numerical quadrature.
 IPart=  0 Atom number   2 atomic number  3 has       20094 grid points.
 At   2 B   3: 100.0% Sh 100.0 % Bf    1 runs, min    6 max    6 av    6.0
 IPart=  0 Atom   2 batch    3 overlaps    2 atoms,     3 shells and     2 DB shells.   NGrid=      2114
 Symmetry reduced   302 angular points to   302 for atom    2.
 Pruned (  99, 590) grid will be used in numerical quadrature.
 IPart=  3 Atom number   2 atomic number  3 has       20094 grid points.
 At   2 B   4: 100.0% Sh 100.0 % Bf    1 runs, min    6 max    6 av    6.0
 IPart=  3 Atom   2 batch    4 overlaps    2 atoms,     3 shells and     2 DB shells.   NGrid=      1180
 Symmetry reduced   590 angular points to   590 for atom    2.
 Pruned (  99, 590) grid will be used in numerical quadrature.
 IPart=  2 Atom number   2 atomic number  3 has       20094 grid points.
 At   2 B   5: 100.0% Sh 100.0 % Bf    1 runs, min    6 max    6 av    6.0
 IPart=  2 Atom   2 batch    5 overlaps    2 atoms,     3 shells and     2 DB shells.   NGrid=      1180
 Symmetry reduced   590 angular points to   590 for atom    2.
 Pruned (  99, 590) grid will be used in numerical quadrature.
 IPart=  8 Atom number   2 atomic number  3 has       20094 grid points.
 At   2 B   6: 100.0% Sh 100.0 % Bf    1 runs, min    6 max    6 av    6.0
 IPart=  8 Atom   2 batch    6 overlaps    2 atoms,     3 shells and     2 DB shells.   NGrid=      1180
 Symmetry reduced   590 angular points to   590 for atom    2.
 Pruned (  99, 590) grid will be used in numerical quadrature.
 IPart=  7 Atom number   2 atomic number  3 has       20094 grid points.
 At   2 B   7: 100.0% Sh 100.0 % Bf    1 runs, min    6 max    6 av    6.0
 IPart=  7 Atom   2 batch    7 overlaps    2 atoms,     3 shells and     2 DB shells.   NGrid=      1180
 Symmetry reduced   590 angular points to   590 for atom    2.
 Pruned (  99, 590) grid will be used in numerical quadrature.
 Pruned (  99, 590) grid will be used in numerical quadrature.
 IPart=  9 Atom number   2 atomic number  3 has       20094 grid points.
 Pruned (  99, 590) grid will be used in numerical quadrature.
 IPart=  4 Atom number   2 atomic number  3 has       20094 grid points.
 IPart=  6 Atom number   2 atomic number  3 has       20094 grid points.
 At   2 B   9: 100.0% Sh 100.0 % Bf    1 runs, min    6 max    6 av    6.0
 IPart=  4 Atom   2 batch    9 overlaps    2 atoms,     3 shells and     2 DB shells.   NGrid=      1180
 At   2 B  10:  66.7% Sh  83.3 % Bf    2 runs, min    1 max    4 av    2.5
 IPart=  6 Atom   2 batch   10 overlaps    2 atoms,     2 shells and     2 DB shells.   NGrid=      1180
 Symmetry reduced   590 angular points to   590 for atom    2.
 At   2 B   8: 100.0% Sh 100.0 % Bf    1 runs, min    6 max    6 av    6.0
 IPart=  9 Atom   2 batch    8 overlaps    2 atoms,     3 shells and     2 DB shells.   NGrid=      1180
 Symmetry reduced   590 angular points to   590 for atom    2.
 Pruned (  99, 590) grid will be used in numerical quadrature.
 Symmetry reduced   590 angular points to   590 for atom    2.
 Pruned (  99, 590) grid will be used in numerical quadrature.
 IPart=  5 Atom number   2 atomic number  3 has       20094 grid points.
 IPart= 10 Atom number   2 atomic number  3 has       20094 grid points.
 At   2 B  11:  66.7% Sh  83.3 % Bf    2 runs, min    1 max    4 av    2.5
 IPart=  5 Atom   2 batch   11 overlaps    2 atoms,     2 shells and     2 DB shells.   NGrid=      1180
 At   2 B  12:  66.7% Sh  83.3 % Bf    2 runs, min    1 max    4 av    2.5
 IPart= 10 Atom   2 batch   12 overlaps    2 atoms,     2 shells and     2 DB shells.   NGrid=       590
 Symmetry reduced   590 angular points to   590 for atom    2.
 Symmetry reduced   590 angular points to   590 for atom    2.
 At   2 B  13:  66.7% Sh  83.3 % Bf    2 runs, min    1 max    4 av    2.5
 IPart= 10 Atom   2 batch   13 overlaps    2 atoms,     2 shells and     2 DB shells.   NGrid=       604
 At   2 B  14:  66.7% Sh  83.3 % Bf    2 runs, min    1 max    4 av    2.5
 IPart=  3 Atom   2 batch   14 overlaps    2 atoms,     2 shells and     2 DB shells.   NGrid=       604
 Symmetry reduced   302 angular points to   302 for atom    2.
 Symmetry reduced   302 angular points to   302 for atom    2.
 At   2 B  15:  66.7% Sh  83.3 % Bf    2 runs, min    1 max    4 av    2.5
 IPart=  2 Atom   2 batch   15 overlaps    2 atoms,     2 shells and     2 DB shells.   NGrid=       604
 Symmetry reduced   302 angular points to   302 for atom    2.
 At   2 B  16:  33.3% Sh  66.7 % Bf    1 runs, min    4 max    4 av    4.0
 IPart=  8 Atom   2 batch   16 overlaps    2 atoms,     1 shells and     1 DB shells.   NGrid=       604
 Symmetry reduced   302 angular points to   302 for atom    2.
 At   2 B  17:  33.3% Sh  66.7 % Bf    1 runs, min    4 max    4 av    4.0
 IPart=  7 Atom   2 batch   17 overlaps    2 atoms,     1 shells and     1 DB shells.   NGrid=       604
 Symmetry reduced   302 angular points to   302 for atom    2.
 IPart=  4         2814 of         2964 points in       3 batches and       46 microbatches, Max-NSigAt=       2 Max-NSgAt2=       2
 IPart=  9         2863 of         2964 points in       3 batches and       36 microbatches, Max-NSigAt=       2 Max-NSgAt2=       2
 CalDSu-ThDecC:  IPartSL=    4    0 NPrtUSL=   12    1 IThBeg=    0 IThEnd=   11 CPU=   -1 GPU=   -1 NThAct=   12.
 CalDSu-ThDecC:  IPartSL=    9    0 NPrtUSL=   12    1 IThBeg=    0 IThEnd=   11 CPU=   -1 GPU=   -1 NThAct=   11.
 IPart=  6         3522 of         3596 points in       2 batches and       25 microbatches, Max-NSigAt=       2 Max-NSgAt2=       2
 CalDSu-ThDecC:  IPartSL=    6    0 NPrtUSL=   12    1 IThBeg=    0 IThEnd=   11 CPU=   -1 GPU=   -1 NThAct=   10.
 IPart=  5         2848 of         2964 points in       3 batches and       50 microbatches, Max-NSigAt=       2 Max-NSgAt2=       2
 CalDSu-ThDecC:  IPartSL=    5    0 NPrtUSL=   12    1 IThBeg=    0 IThEnd=   11 CPU=   -1 GPU=   -1 NThAct=    9.
 IPart= 11         3588 of         3588 points in       2 batches and        8 microbatches, Max-NSigAt=       2 Max-NSgAt2=       2
 CalDSu-ThDecC:  IPartSL=   11    0 NPrtUSL=   12    1 IThBeg=    0 IThEnd=   11 CPU=   -1 GPU=   -1 NThAct=    8.
 IPart=  3         3486 of         3568 points in       4 batches and       25 microbatches, Max-NSigAt=       2 Max-NSgAt2=       2
 IPart=  8         3450 of         3568 points in       4 batches and       40 microbatches, Max-NSigAt=       2 Max-NSgAt2=       2
 IPart=  0         3943 of         4270 points in       3 batches and       11 microbatches, Max-NSigAt=       2 Max-NSgAt2=       2
 CalDSu-ThDecC:  IPartSL=    3    0 NPrtUSL=   12    1 IThBeg=    0 IThEnd=   11 CPU=   -1 GPU=   -1 NThAct=    7.
 CalDSu-ThDecC:  IPartSL=    0    0 NPrtUSL=   12    1 IThBeg=    0 IThEnd=   11 CPU=   -1 GPU=   -1 NThAct=    6.
 IPart= 10         3953 of         4032 points in       3 batches and       49 microbatches, Max-NSigAt=       2 Max-NSgAt2=       2
 CalDSu-ThDecC:  IPartSL=    8    0 NPrtUSL=   12    1 IThBeg=    0 IThEnd=   11 CPU=   -1 GPU=   -1 NThAct=    5.
 CalDSu-ThDecC:  IPartSL=   10    0 NPrtUSL=   12    1 IThBeg=    0 IThEnd=   11 CPU=   -1 GPU=   -1 NThAct=    4.
 IPart=  1         3676 of         4306 points in       3 batches and       10 microbatches, Max-NSigAt=       2 Max-NSgAt2=       2
 IPart=  2         3474 of         3568 points in       4 batches and       37 microbatches, Max-NSigAt=       2 Max-NSgAt2=       2
 CalDSu-ThDecC:  IPartSL=    1    0 NPrtUSL=   12    1 IThBeg=    0 IThEnd=   11 CPU=   -1 GPU=   -1 NThAct=    3.
 CalDSu-ThDecC:  IPartSL=    2    0 NPrtUSL=   12    1 IThBeg=    0 IThEnd=   11 CPU=   -1 GPU=   -1 NThAct=    2.
 IPart=  7         3451 of         3568 points in       4 batches and       65 microbatches, Max-NSigAt=       2 Max-NSgAt2=       2
 CalDSu-ThDecC:  IPartSL=    7    0 NPrtUSL=   12    1 IThBeg=    0 IThEnd=   11 CPU=   -1 GPU=   -1 NThAct=    1.
 Requested info about the electron count:
 NE=    4 NElCor=    0 El error=2.93D-08 rel=7.31D-09 Tolerance=1.00D-03
 Shell     1     absolute error=2.89D-08              Tolerance=1.20D-02
 Shell     1       signed error=2.89D-08              Tolerance=1.00D-01
 SetAtRh:  ITypeU=  14 NETotI=       4 ICharg=  0 NETot=       4.
 StAtR1:  I=    1 I1=    1 IA=  1 C=   1.0 OKShel=T
                                                  S
                                                  1
 StAtR1:  I=    2 I1=    2 IA=  3 C=   3.0 OKShel=TT
                                                  SS
                                                  21
          I=    1 IA=  1 I1=    1 NAtG=10 NE=   1.000 C=   1.000 Err=-1.35D-12
          I=    2 IA=  3 I1=    2 NAtG=13 NE=   3.000 C=   3.000 Err= 3.49D-12
 FoFCou: FMM=F IPFlag=           0 FMFlag=      100000 FMFlg1=           0
         NFxFlg=           0 DoJE=T BraDBF=F KetDBF=T FulRan=T
         wScrn=  0.000000 ICntrl=       500 IOpCl=  0 I1Cent=   200000004 NGrid=           0
         NMat0=    1 NMatS0=      1 NMatT0=    0 NMatD0=    1 NMtDS0=    0 NMtDT0=    0
 Symmetry not used in FoFCou.
 FoFCou:  KetSym=T NOpSet=  1 NOpAb=1 NOp=  1.
 FoFCou:  CnvScl= 1.00D+00 Thresh= 1.00D-12 IAcrcy=      10.
 ShPair: Thresh= 1.00D-12 NBox=     0 BxSize= 0.00D+00 RnKept= 2.89D+00
         NSMCal=                    6 NSMKep=                   6
 FoFCou: LinMIO=F DoNuc=F BraDBF=F KetDBF=T HaveP=T PDBF=T HaveZ=F HaveW=F
         NIJTC =       3 NIJTAt=       0 NIJTCD=       1 NIJTT =       4
         IJTBeg=       1 IJTEnd=       3 KLTBeg=       4 KLTEnd=       4
         IPTBeg=       4 IPTEnd=       4 IPTBCv=       4 IPTECv=       4
         IZTBeg=       1 IZTEnd=       3 IZTBCv=       1 IZTECv=       3
         IWTBeg=       4 IWTEnd=       4 IWTBCv=       4 IWTECv=       4
         INTBeg=       1 INTEnd=       0 IFTBCv=       1 IFTECv=       3
 Entering DenIrr
 DenIrr was handed  4294966672 working-precision words and     8 shell-pairs
 Leaving DenIrr, iEnd w/o den=        2699 nHerm=          38.
 CoulSu-InSpLW:  IPartL=    0 NPrtUS=   12 NPrtUL=    1 DoSpLW=F IThBeg=    0 IThEnd=   11 NThAct=   12.
 CoulSu:  IncTry=  1024 NBBP=             12 NTPThr=   100 NPartT=   12 Incr=           1 LDynOK=F GPUOK=F.
 CoulSu:  NPrtUS=  12 ThrOK=T IAlg=1 LenDen=          38 LWGrdD=           0 DoCopy=T ISkipM=0
          DoSpLW=F IThBeg=    0 IThEnd=   11.
 CoulSu:  IPart=    0 IPartR=    0 CPU=   -1 GPU=   -1.
 CoulSu:  IPart=   10 IPartR=   10 CPU=   -1 GPU=   -1.
 CoulSu:  IPart=    9 IPartR=    9 CPU=   -1 GPU=   -1.
 CoulSu:  IPart=   11 IPartR=   11 CPU=   -1 GPU=   -1.
 CoulSu:  IPart=    5 IPartR=    5 CPU=   -1 GPU=   -1.
 CoulSu:  IPart=    1 IPartR=    1 CPU=   -1 GPU=   -1.
 Enter PrismC:  IPart=  0 JobTyp=20 DoJE=T Cont=T.
 CoulSu:  IPart=    8 IPartR=    8 CPU=   -1 GPU=   -1.
 CoulSu:  IPart=    3 IPartR=    3 CPU=   -1 GPU=   -1.
 Enter PrismC:  IPart=  5 JobTyp=20 DoJE=T Cont=T.
 CoulSu:  IPart=    7 IPartR=    7 CPU=   -1 GPU=   -1.
 Enter PrismC:  IPart=  8 JobTyp=20 DoJE=T Cont=T.
 CoulSu:  IPart=    4 IPartR=    4 CPU=   -1 GPU=   -1.
 Enter PrismC:  IPart=  9 JobTyp=20 DoJE=T Cont=T.
 CoulSu:  IPart=    6 IPartR=    6 CPU=   -1 GPU=   -1.
 Enter PrismC:  IPart=  3 JobTyp=20 DoJE=T Cont=T.
 CoulSu:  IPart=    2 IPartR=    2 CPU=   -1 GPU=   -1.
 Enter PrismC:  IPart=  7 JobTyp=20 DoJE=T Cont=T.
 Enter PrismC:  IPart=  6 JobTyp=20 DoJE=T Cont=T.
 Enter PrismC:  IPart=  2 JobTyp=20 DoJE=T Cont=T.
 PrismC:  IPart=     0 DynPar=F LinDyn=F Incr=           1 UseFst=F UseS4=T ISplat=2.
 PrismC:  IPart=     6 DynPar=F LinDyn=F Incr=           1 UseFst=F UseS4=T ISplat=2.
 PrismC was handed   357912473 working-precision words and     6 shell-pairs
 Enter PrismC:  IPart=  4 JobTyp=20 DoJE=T Cont=T.
 PrismC:  IPart=     3 DynPar=F LinDyn=F Incr=           1 UseFst=F UseS4=T ISplat=2.
 Enter PrismC:  IPart=  1 JobTyp=20 DoJE=T Cont=T.
 PrismC:  IPart=     9 DynPar=F LinDyn=F Incr=           1 UseFst=F UseS4=T ISplat=2.
 PrismC:  IPart=     4 DynPar=F LinDyn=F Incr=           1 UseFst=F UseS4=T ISplat=2.
 Enter PrismC:  IPart= 11 JobTyp=20 DoJE=T Cont=T.
 PrismC:  IPart=     1 DynPar=F LinDyn=F Incr=           1 UseFst=F UseS4=T ISplat=2.
 PrismC was handed   357912473 working-precision words and     6 shell-pairs
 Enter PrismC:  IPart= 10 JobTyp=20 DoJE=T Cont=T.
 PrismC:  IPart=     7 DynPar=F LinDyn=F Incr=           1 UseFst=F UseS4=T ISplat=2.
 PrismC was handed   357912473 working-precision words and     6 shell-pairs
 PrismC:  IPart=    10 DynPar=F LinDyn=F Incr=           1 UseFst=F UseS4=T ISplat=2.
 PrismC was handed   357912473 working-precision words and     6 shell-pairs
 PrismC:  IPart=     5 DynPar=F LinDyn=F Incr=           1 UseFst=F UseS4=T ISplat=2.
 PrismC:  IPart=     2 DynPar=F LinDyn=F Incr=           1 UseFst=F UseS4=T ISplat=2.
 PrismC:  IPart=    11 DynPar=F LinDyn=F Incr=           1 UseFst=F UseS4=T ISplat=2.
 PrismC:  IPart=     8 DynPar=F LinDyn=F Incr=           1 UseFst=F UseS4=T ISplat=2.
 PrismC was handed   357912473 working-precision words and     6 shell-pairs
 PrismC was handed   357912473 working-precision words and     6 shell-pairs
 PrismC was handed   357912473 working-precision words and     6 shell-pairs
 PrismC was handed   357912473 working-precision words and     6 shell-pairs
 PrismC was handed   357912473 working-precision words and     6 shell-pairs
 PrismC was handed   357912473 working-precision words and     6 shell-pairs
 PrismC was handed   357912473 working-precision words and     6 shell-pairs
 PrismC was handed   357912473 working-precision words and     6 shell-pairs
 IPart=  6 NShTot=           0 NShNF=           0 NShFF=           0 MinMC=     100
           NShCPU=           0 NBCPU=           0 AvBCPU=         0.0
           NShGPU=           0 NBGPU=           0 AvBGPU=         0.0
 CoulSu-ThDecC:  IPartSL=    6    0 NPrtUSL=   12    1 IThBeg=    0 IThEnd=   11 CPU=   -1 GPU=   -1 NThAct=   12.
 IPart=  8 NShTot=           0 NShNF=           0 NShFF=           0 MinMC=     100
           NShCPU=           0 NBCPU=           0 AvBCPU=         0.0
           NShGPU=           0 NBGPU=           0 AvBGPU=         0.0
 CoulSu-ThDecC:  IPartSL=    8    0 NPrtUSL=   12    1 IThBeg=    0 IThEnd=   11 CPU=   -1 GPU=   -1 NThAct=   11.
 IPart=  1 NShTot=           0 NShNF=           0 NShFF=           0 MinMC=     100
           NShCPU=           0 NBCPU=           0 AvBCPU=         0.0
           NShGPU=           0 NBGPU=           0 AvBGPU=         0.0
 CoulSu-ThDecC:  IPartSL=    1    0 NPrtUSL=   12    1 IThBeg=    0 IThEnd=   11 CPU=   -1 GPU=   -1 NThAct=   10.
 IPart=  5 NShTot=           0 NShNF=           0 NShFF=           0 MinMC=     100
           NShCPU=           0 NBCPU=           0 AvBCPU=         0.0
           NShGPU=           0 NBGPU=           0 AvBGPU=         0.0
 CoulSu-ThDecC:  IPartSL=    5    0 NPrtUSL=   12    1 IThBeg=    0 IThEnd=   11 CPU=   -1 GPU=   -1 NThAct=    9.
 IPart=  2 NShTot=           0 NShNF=           0 NShFF=           0 MinMC=     100
           NShCPU=           0 NBCPU=           0 AvBCPU=         0.0
           NShGPU=           0 NBGPU=           0 AvBGPU=         0.0
 IPart=  4 NShTot=           0 NShNF=           0 NShFF=           0 MinMC=     100
           NShCPU=           0 NBCPU=           0 AvBCPU=         0.0
           NShGPU=           0 NBGPU=           0 AvBGPU=         0.0
 IPart= 11 NShTot=           0 NShNF=           0 NShFF=           0 MinMC=     100
           NShCPU=           0 NBCPU=           0 AvBCPU=         0.0
           NShGPU=           0 NBGPU=           0 AvBGPU=         0.0
 CoulSu-ThDecC:  IPartSL=    2    0 NPrtUSL=   12    1 IThBeg=    0 IThEnd=   11 CPU=   -1 GPU=   -1 NThAct=    8.
 IPart=  3 NShTot=           0 NShNF=           0 NShFF=           0 MinMC=     100
           NShCPU=           0 NBCPU=           0 AvBCPU=         0.0
           NShGPU=           0 NBGPU=           0 AvBGPU=         0.0
 CoulSu-ThDecC:  IPartSL=   11    0 NPrtUSL=   12    1 IThBeg=    0 IThEnd=   11 CPU=   -1 GPU=   -1 NThAct=    7.
 CoulSu-ThDecC:  IPartSL=    3    0 NPrtUSL=   12    1 IThBeg=    0 IThEnd=   11 CPU=   -1 GPU=   -1 NThAct=    6.
 CoulSu-ThDecC:  IPartSL=    4    0 NPrtUSL=   12    1 IThBeg=    0 IThEnd=   11 CPU=   -1 GPU=   -1 NThAct=    5.
 IPart= 10 NShTot=           0 NShNF=           0 NShFF=           0 MinMC=     100
           NShCPU=           0 NBCPU=           0 AvBCPU=         0.0
           NShGPU=           0 NBGPU=           0 AvBGPU=         0.0
 CoulSu-ThDecC:  IPartSL=   10    0 NPrtUSL=   12    1 IThBeg=    0 IThEnd=   11 CPU=   -1 GPU=   -1 NThAct=    4.
 IPart=  9 NShTot=           0 NShNF=           0 NShFF=           0 MinMC=     100
           NShCPU=           0 NBCPU=           0 AvBCPU=         0.0
           NShGPU=           0 NBGPU=           0 AvBGPU=         0.0
 CoulSu-ThDecC:  IPartSL=    9    0 NPrtUSL=   12    1 IThBeg=    0 IThEnd=   11 CPU=   -1 GPU=   -1 NThAct=    3.
 IPart=  7 NShTot=           0 NShNF=           0 NShFF=           0 MinMC=     100
           NShCPU=           0 NBCPU=           0 AvBCPU=         0.0
           NShGPU=           0 NBGPU=           0 AvBGPU=         0.0
 CoulSu-ThDecC:  IPartSL=    7    0 NPrtUSL=   12    1 IThBeg=    0 IThEnd=   11 CPU=   -1 GPU=   -1 NThAct=    2.
 IPart=  0 NShTot=          12 NShNF=          12 NShFF=           0 MinMC=     100
           NShCPU=          12 NBCPU=          12 AvBCPU=         1.0
           NShGPU=           0 NBGPU=           0 AvBGPU=         0.0
 CoulSu-ThDecC:  IPartSL=    0    0 NPrtUSL=   12    1 IThBeg=    0 IThEnd=   11 CPU=   -1 GPU=   -1 NThAct=    1.
 CoulSu:  NxtVal=             13 LenVP=      357912474 MinMC=     100.
 Entering FocIrr
 FocIrr was handed  4294963898 working-precision words and     6 shell-pairs
 Leaving FocIrr
 Entering DenIrr
 DenIrr was handed  4294966672 working-precision words and     8 shell-pairs
 Leaving DenIrr, iEnd w/o den=        3027 nHerm=         212.
 CoulSu-InSpLW:  IPartL=    0 NPrtUS=   12 NPrtUL=    1 DoSpLW=F IThBeg=    0 IThEnd=   11 NThAct=   12.
 CoulSu:  IncTry=  1024 NBBP=             12 NTPThr=   100 NPartT=   12 Incr=           1 LDynOK=F GPUOK=F.
 CoulSu:  NPrtUS=  12 ThrOK=T IAlg=1 LenDen=         212 LWGrdD=           0 DoCopy=T ISkipM=0
          DoSpLW=F IThBeg=    0 IThEnd=   11.
 CoulSu:  IPart=    8 IPartR=    8 CPU=   -1 GPU=   -1.
 CoulSu:  IPart=    0 IPartR=    0 CPU=   -1 GPU=   -1.
 CoulSu:  IPart=    3 IPartR=    3 CPU=   -1 GPU=   -1.
 CoulSu:  IPart=    2 IPartR=    2 CPU=   -1 GPU=   -1.
 CoulSu:  IPart=    4 IPartR=    4 CPU=   -1 GPU=   -1.
 CoulSu:  IPart=    6 IPartR=    6 CPU=   -1 GPU=   -1.
 Enter PrismC:  IPart=  8 JobTyp=20 DoJE=T Cont=F.
 CoulSu:  IPart=   10 IPartR=   10 CPU=   -1 GPU=   -1.
 Enter PrismC:  IPart=  2 JobTyp=20 DoJE=T Cont=F.
 CoulSu:  IPart=   11 IPartR=   11 CPU=   -1 GPU=   -1.
 Enter PrismC:  IPart= 10 JobTyp=20 DoJE=T Cont=F.
 CoulSu:  IPart=    1 IPartR=    1 CPU=   -1 GPU=   -1.
 Enter PrismC:  IPart= 11 JobTyp=20 DoJE=T Cont=F.
 CoulSu:  IPart=    9 IPartR=    9 CPU=   -1 GPU=   -1.
 Enter PrismC:  IPart=  1 JobTyp=20 DoJE=T Cont=F.
 CoulSu:  IPart=    7 IPartR=    7 CPU=   -1 GPU=   -1.
 Enter PrismC:  IPart=  9 JobTyp=20 DoJE=T Cont=F.
 Enter PrismC:  IPart=  7 JobTyp=20 DoJE=T Cont=F.
 CoulSu:  IPart=    5 IPartR=    5 CPU=   -1 GPU=   -1.
 Enter PrismC:  IPart=  0 JobTyp=20 DoJE=T Cont=F.
 Enter PrismC:  IPart=  6 JobTyp=20 DoJE=T Cont=F.
 Enter PrismC:  IPart=  5 JobTyp=20 DoJE=T Cont=F.
 Enter PrismC:  IPart=  4 JobTyp=20 DoJE=T Cont=F.
 PrismC:  IPart=     8 DynPar=F LinDyn=F Incr=           1 UseFst=F UseS4=T ISplat=2.
 Enter PrismC:  IPart=  3 JobTyp=20 DoJE=T Cont=F.
 PrismC was handed   357912098 working-precision words and     6 shell-pairs
 PrismC:  IPart=     4 DynPar=F LinDyn=F Incr=           1 UseFst=F UseS4=T ISplat=2.
 PrismC was handed   357912098 working-precision words and     6 shell-pairs
 PrismC:  IPart=    10 DynPar=F LinDyn=F Incr=           1 UseFst=F UseS4=T ISplat=2.
 PrismC:  IPart=     0 DynPar=F LinDyn=F Incr=           1 UseFst=F UseS4=T ISplat=2.
 PrismC was handed   357912098 working-precision words and     6 shell-pairs
 PrismC:  IPart=     9 DynPar=F LinDyn=F Incr=           1 UseFst=F UseS4=T ISplat=2.
 PrismC was handed   357912098 working-precision words and     6 shell-pairs
 PrismC:  IPart=     2 DynPar=F LinDyn=F Incr=           1 UseFst=F UseS4=T ISplat=2.
 PrismC:  IPart=     6 DynPar=F LinDyn=F Incr=           1 UseFst=F UseS4=T ISplat=2.
 PrismC:  IPart=     1 DynPar=F LinDyn=F Incr=           1 UseFst=F UseS4=T ISplat=2.
 PrismC:  IPart=     5 DynPar=F LinDyn=F Incr=           1 UseFst=F UseS4=T ISplat=2.
 PrismC was handed   357912098 working-precision words and     6 shell-pairs
 PrismC:  IPart=     3 DynPar=F LinDyn=F Incr=           1 UseFst=F UseS4=T ISplat=2.
 PrismC was handed   357912098 working-precision words and     6 shell-pairs
 PrismC:  IPart=     7 DynPar=F LinDyn=F Incr=           1 UseFst=F UseS4=T ISplat=2.
 PrismC was handed   357912098 working-precision words and     6 shell-pairs
 PrismC was handed   357912098 working-precision words and     6 shell-pairs
 PrismC:  IPart=    11 DynPar=F LinDyn=F Incr=           1 UseFst=F UseS4=T ISplat=2.
 PrismC was handed   357912098 working-precision words and     6 shell-pairs
 PrismC was handed   357912098 working-precision words and     6 shell-pairs
 PrismC was handed   357912098 working-precision words and     6 shell-pairs
 PrismC was handed   357912098 working-precision words and     6 shell-pairs
 IPart=  4 NShTot=           0 NShNF=           0 NShFF=           0 MinMC=      46
           NShCPU=           0 NBCPU=           0 AvBCPU=         0.0
           NShGPU=           0 NBGPU=           0 AvBGPU=         0.0
 CoulSu-ThDecC:  IPartSL=    4    0 NPrtUSL=   12    1 IThBeg=    0 IThEnd=   11 CPU=   -1 GPU=   -1 NThAct=   12.
 IPart= 11 NShTot=           0 NShNF=           0 NShFF=           0 MinMC=      46
           NShCPU=           0 NBCPU=           0 AvBCPU=         0.0
           NShGPU=           0 NBGPU=           0 AvBGPU=         0.0
 CoulSu-ThDecC:  IPartSL=   11    0 NPrtUSL=   12    1 IThBeg=    0 IThEnd=   11 CPU=   -1 GPU=   -1 NThAct=   11.
 IPart=  8 NShTot=           0 NShNF=           0 NShFF=           0 MinMC=      46
           NShCPU=           0 NBCPU=           0 AvBCPU=         0.0
           NShGPU=           0 NBGPU=           0 AvBGPU=         0.0
 IPart=  1 NShTot=           0 NShNF=           0 NShFF=           0 MinMC=      46
           NShCPU=           0 NBCPU=           0 AvBCPU=         0.0
           NShGPU=           0 NBGPU=           0 AvBGPU=         0.0
 CoulSu-ThDecC:  IPartSL=    8    0 NPrtUSL=   12    1 IThBeg=    0 IThEnd=   11 CPU=   -1 GPU=   -1 NThAct=   10.
 CoulSu-ThDecC:  IPartSL=    1    0 NPrtUSL=   12    1 IThBeg=    0 IThEnd=   11 CPU=   -1 GPU=   -1 NThAct=    9.
 IPart=  9 NShTot=           0 NShNF=           0 NShFF=           0 MinMC=      46
           NShCPU=           0 NBCPU=           0 AvBCPU=         0.0
           NShGPU=           0 NBGPU=           0 AvBGPU=         0.0
 CoulSu-ThDecC:  IPartSL=    9    0 NPrtUSL=   12    1 IThBeg=    0 IThEnd=   11 CPU=   -1 GPU=   -1 NThAct=    8.
 IPart=  7 NShTot=           0 NShNF=           0 NShFF=           0 MinMC=      46
           NShCPU=           0 NBCPU=           0 AvBCPU=         0.0
           NShGPU=           0 NBGPU=           0 AvBGPU=         0.0
 CoulSu-ThDecC:  IPartSL=    7    0 NPrtUSL=   12    1 IThBeg=    0 IThEnd=   11 CPU=   -1 GPU=   -1 NThAct=    7.
 IPart=  3 NShTot=           0 NShNF=           0 NShFF=           0 MinMC=      46
           NShCPU=           0 NBCPU=           0 AvBCPU=         0.0
           NShGPU=           0 NBGPU=           0 AvBGPU=         0.0
 CoulSu-ThDecC:  IPartSL=    3    0 NPrtUSL=   12    1 IThBeg=    0 IThEnd=   11 CPU=   -1 GPU=   -1 NThAct=    6.
 IPart=  6 NShTot=           0 NShNF=           0 NShFF=           0 MinMC=      46
           NShCPU=           0 NBCPU=           0 AvBCPU=         0.0
           NShGPU=           0 NBGPU=           0 AvBGPU=         0.0
 CoulSu-ThDecC:  IPartSL=    6    0 NPrtUSL=   12    1 IThBeg=    0 IThEnd=   11 CPU=   -1 GPU=   -1 NThAct=    5.
 IPart=  5 NShTot=           0 NShNF=           0 NShFF=           0 MinMC=      46
           NShCPU=           0 NBCPU=           0 AvBCPU=         0.0
           NShGPU=           0 NBGPU=           0 AvBGPU=         0.0
 CoulSu-ThDecC:  IPartSL=    5    0 NPrtUSL=   12    1 IThBeg=    0 IThEnd=   11 CPU=   -1 GPU=   -1 NThAct=    4.
 IPart=  2 NShTot=           0 NShNF=           0 NShFF=           0 MinMC=      46
           NShCPU=           0 NBCPU=           0 AvBCPU=         0.0
           NShGPU=           0 NBGPU=           0 AvBGPU=         0.0
 CoulSu-ThDecC:  IPartSL=    2    0 NPrtUSL=   12    1 IThBeg=    0 IThEnd=   11 CPU=   -1 GPU=   -1 NThAct=    3.
 IPart= 10 NShTot=           0 NShNF=           0 NShFF=           0 MinMC=      46
           NShCPU=           0 NBCPU=           0 AvBCPU=         0.0
           NShGPU=           0 NBGPU=           0 AvBGPU=         0.0
 CoulSu-ThDecC:  IPartSL=   10    0 NPrtUSL=   12    1 IThBeg=    0 IThEnd=   11 CPU=   -1 GPU=   -1 NThAct=    2.
 IPart=  0 NShTot=           0 NShNF=           0 NShFF=           0 MinMC=      46
           NShCPU=           0 NBCPU=           0 AvBCPU=         0.0
           NShGPU=           0 NBGPU=           0 AvBGPU=         0.0
 CoulSu-ThDecC:  IPartSL=    0    0 NPrtUSL=   12    1 IThBeg=    0 IThEnd=   11 CPU=   -1 GPU=   -1 NThAct=    1.
 CoulSu:  NxtVal=             13 LenVP=      357912099 MinMC=      46.
 Entering FocIrr
 FocIrr was handed  4294963222 working-precision words and     6 shell-pairs
 Leaving FocIrr
 FoFCou: FMM=F IPFlag=           0 FMFlag=      100000 FMFlg1=           0
         NFxFlg=           0 DoJE=T BraDBF=T KetDBF=T FulRan=T
         wScrn=  0.000000 ICntrl=       500 IOpCl=  0 I1Cent=   200000006 NGrid=           0
         NMat0=    1 NMatS0=      1 NMatT0=    0 NMatD0=    1 NMtDS0=    0 NMtDT0=    0
 Symmetry not used in FoFCou.
 FoFCou:  KetSym=T NOpSet=  1 NOpAb=1 NOp=  1.
 FoFCou:  CnvScl= 1.00D+00 Thresh= 1.00D-12 IAcrcy=      10.
 FoFCou: LinMIO=F DoNuc=F BraDBF=T KetDBF=T HaveP=T PDBF=T HaveZ=F HaveW=F
         NIJTC =       0 NIJTAt=       0 NIJTCD=       1 NIJTT =       1
         IJTBeg=       1 IJTEnd=       1 KLTBeg=       1 KLTEnd=       1
         IPTBeg=       1 IPTEnd=       1 IPTBCv=       1 IPTECv=       1
         IZTBeg=       1 IZTEnd=       0 IZTBCv=       1 IZTECv=       1
         IWTBeg=       1 IWTEnd=       1 IWTBCv=       1 IWTECv=       1
         INTBeg=       1 INTEnd=       0 IFTBCv=       1 IFTECv=       1
 Entering DenIrr
 DenIrr was handed  4294966672 working-precision words and     2 shell-pairs
 Leaving DenIrr, iEnd w/o den=        1379 nHerm=           2.
 CoulSu-InSpLW:  IPartL=    0 NPrtUS=   12 NPrtUL=    1 DoSpLW=F IThBeg=    0 IThEnd=   11 NThAct=   12.
 CoulSu:  IncTry=  1024 NBBP=              4 NTPThr=   100 NPartT=   12 Incr=           1 LDynOK=F GPUOK=F.
 CoulSu:  NPrtUS=  12 ThrOK=T IAlg=1 LenDen=           2 LWGrdD=           0 DoCopy=T ISkipM=0
          DoSpLW=F IThBeg=    0 IThEnd=   11.
 CoulSu:  IPart=    8 IPartR=    8 CPU=   -1 GPU=   -1.
 CoulSu:  IPart=    0 IPartR=    0 CPU=   -1 GPU=   -1.
 Enter PrismC:  IPart=  8 JobTyp=20 DoJE=T Cont=T.
 CoulSu:  IPart=   10 IPartR=   10 CPU=   -1 GPU=   -1.
 Enter PrismC:  IPart=  0 JobTyp=20 DoJE=T Cont=T.
 CoulSu:  IPart=    2 IPartR=    2 CPU=   -1 GPU=   -1.
 PrismC:  IPart=     8 DynPar=F LinDyn=F Incr=           1 UseFst=F UseS4=T ISplat=2.
 PrismC was handed   357913092 working-precision words and     2 shell-pairs
 PrismC:  IPart=     0 DynPar=F LinDyn=F Incr=           1 UseFst=F UseS4=T ISplat=2.
 Enter PrismC:  IPart= 10 JobTyp=20 DoJE=T Cont=T.
 PrismC was handed   357913092 working-precision words and     2 shell-pairs
 PrismC:  IPart=    10 DynPar=F LinDyn=F Incr=           1 UseFst=F UseS4=T ISplat=2.
 PrismC was handed   357913092 working-precision words and     2 shell-pairs
 CoulSu:  IPart=    6 IPartR=    6 CPU=   -1 GPU=   -1.
 CoulSu:  IPart=    1 IPartR=    1 CPU=   -1 GPU=   -1.
 Enter PrismC:  IPart=  2 JobTyp=20 DoJE=T Cont=T.
 CoulSu:  IPart=    4 IPartR=    4 CPU=   -1 GPU=   -1.
 PrismC:  IPart=     2 DynPar=F LinDyn=F Incr=           1 UseFst=F UseS4=T ISplat=2.
 Enter PrismC:  IPart=  1 JobTyp=20 DoJE=T Cont=T.
 PrismC was handed   357913092 working-precision words and     2 shell-pairs
 Enter PrismC:  IPart=  4 JobTyp=20 DoJE=T Cont=T.
 PrismC:  IPart=     1 DynPar=F LinDyn=F Incr=           1 UseFst=F UseS4=T ISplat=2.
 Enter PrismC:  IPart=  6 JobTyp=20 DoJE=T Cont=T.
 PrismC was handed   357913092 working-precision words and     2 shell-pairs
 PrismC:  IPart=     4 DynPar=F LinDyn=F Incr=           1 UseFst=F UseS4=T ISplat=2.
 PrismC was handed   357913092 working-precision words and     2 shell-pairs
 PrismC:  IPart=     6 DynPar=F LinDyn=F Incr=           1 UseFst=F UseS4=T ISplat=2.
 PrismC was handed   357913092 working-precision words and     2 shell-pairs
 CoulSu:  IPart=    7 IPartR=    7 CPU=   -1 GPU=   -1.
 Enter PrismC:  IPart=  7 JobTyp=20 DoJE=T Cont=T.
 CoulSu:  IPart=   11 IPartR=   11 CPU=   -1 GPU=   -1.
 PrismC:  IPart=     7 DynPar=F LinDyn=F Incr=           1 UseFst=F UseS4=T ISplat=2.
 PrismC was handed   357913092 working-precision words and     2 shell-pairs
 CoulSu:  IPart=    3 IPartR=    3 CPU=   -1 GPU=   -1.
 Enter PrismC:  IPart= 11 JobTyp=20 DoJE=T Cont=T.
 Enter PrismC:  IPart=  3 JobTyp=20 DoJE=T Cont=T.
 CoulSu:  IPart=    5 IPartR=    5 CPU=   -1 GPU=   -1.
 PrismC:  IPart=    11 DynPar=F LinDyn=F Incr=           1 UseFst=F UseS4=T ISplat=2.
 Enter PrismC:  IPart=  5 JobTyp=20 DoJE=T Cont=T.
 PrismC was handed   357913092 working-precision words and     2 shell-pairs
 CoulSu:  IPart=    9 IPartR=    9 CPU=   -1 GPU=   -1.
 PrismC:  IPart=     3 DynPar=F LinDyn=F Incr=           1 UseFst=F UseS4=T ISplat=2.
 PrismC was handed   357913092 working-precision words and     2 shell-pairs
 PrismC:  IPart=     5 DynPar=F LinDyn=F Incr=           1 UseFst=F UseS4=T ISplat=2.
 PrismC was handed   357913092 working-precision words and     2 shell-pairs
 Enter PrismC:  IPart=  9 JobTyp=20 DoJE=T Cont=T.
 PrismC:  IPart=     9 DynPar=F LinDyn=F Incr=           1 UseFst=F UseS4=T ISplat=2.
 PrismC was handed   357913092 working-precision words and     2 shell-pairs
 IPart=  8 NShTot=           0 NShNF=           0 NShFF=           0 MinMC=     118
           NShCPU=           0 NBCPU=           0 AvBCPU=         0.0
           NShGPU=           0 NBGPU=           0 AvBGPU=         0.0
 CoulSu-ThDecC:  IPartSL=    8    0 NPrtUSL=   12    1 IThBeg=    0 IThEnd=   11 CPU=   -1 GPU=   -1 NThAct=   12.
 IPart= 10 NShTot=           0 NShNF=           0 NShFF=           0 MinMC=     118
           NShCPU=           0 NBCPU=           0 AvBCPU=         0.0
           NShGPU=           0 NBGPU=           0 AvBGPU=         0.0
 IPart=  0 NShTot=           4 NShNF=           4 NShFF=           0 MinMC=     118
           NShCPU=           4 NBCPU=           4 AvBCPU=         1.0
           NShGPU=           0 NBGPU=           0 AvBGPU=         0.0
 CoulSu-ThDecC:  IPartSL=   10    0 NPrtUSL=   12    1 IThBeg=    0 IThEnd=   11 CPU=   -1 GPU=   -1 NThAct=   11.
 CoulSu-ThDecC:  IPartSL=    0    0 NPrtUSL=   12    1 IThBeg=    0 IThEnd=   11 CPU=   -1 GPU=   -1 NThAct=   10.
 IPart=  2 NShTot=           0 NShNF=           0 NShFF=           0 MinMC=     118
           NShCPU=           0 NBCPU=           0 AvBCPU=         0.0
           NShGPU=           0 NBGPU=           0 AvBGPU=         0.0
 CoulSu-ThDecC:  IPartSL=    2    0 NPrtUSL=   12    1 IThBeg=    0 IThEnd=   11 CPU=   -1 GPU=   -1 NThAct=    9.
 IPart=  6 NShTot=           0 NShNF=           0 NShFF=           0 MinMC=     118
           NShCPU=           0 NBCPU=           0 AvBCPU=         0.0
           NShGPU=           0 NBGPU=           0 AvBGPU=         0.0
 CoulSu-ThDecC:  IPartSL=    6    0 NPrtUSL=   12    1 IThBeg=    0 IThEnd=   11 CPU=   -1 GPU=   -1 NThAct=    8.
 IPart=  4 NShTot=           0 NShNF=           0 NShFF=           0 MinMC=     118
           NShCPU=           0 NBCPU=           0 AvBCPU=         0.0
           NShGPU=           0 NBGPU=           0 AvBGPU=         0.0
 CoulSu-ThDecC:  IPartSL=    4    0 NPrtUSL=   12    1 IThBeg=    0 IThEnd=   11 CPU=   -1 GPU=   -1 NThAct=    7.
 IPart=  1 NShTot=           0 NShNF=           0 NShFF=           0 MinMC=     118
           NShCPU=           0 NBCPU=           0 AvBCPU=         0.0
           NShGPU=           0 NBGPU=           0 AvBGPU=         0.0
 CoulSu-ThDecC:  IPartSL=    1    0 NPrtUSL=   12    1 IThBeg=    0 IThEnd=   11 CPU=   -1 GPU=   -1 NThAct=    6.
 IPart=  7 NShTot=           0 NShNF=           0 NShFF=           0 MinMC=     118
           NShCPU=           0 NBCPU=           0 AvBCPU=         0.0
           NShGPU=           0 NBGPU=           0 AvBGPU=         0.0
 CoulSu-ThDecC:  IPartSL=    7    0 NPrtUSL=   12    1 IThBeg=    0 IThEnd=   11 CPU=   -1 GPU=   -1 NThAct=    5.
 IPart= 11 NShTot=           0 NShNF=           0 NShFF=           0 MinMC=     118
           NShCPU=           0 NBCPU=           0 AvBCPU=         0.0
           NShGPU=           0 NBGPU=           0 AvBGPU=         0.0
 CoulSu-ThDecC:  IPartSL=   11    0 NPrtUSL=   12    1 IThBeg=    0 IThEnd=   11 CPU=   -1 GPU=   -1 NThAct=    4.
 IPart=  3 NShTot=           0 NShNF=           0 NShFF=           0 MinMC=     118
           NShCPU=           0 NBCPU=           0 AvBCPU=         0.0
           NShGPU=           0 NBGPU=           0 AvBGPU=         0.0
 CoulSu-ThDecC:  IPartSL=    3    0 NPrtUSL=   12    1 IThBeg=    0 IThEnd=   11 CPU=   -1 GPU=   -1 NThAct=    3.
 IPart=  5 NShTot=           0 NShNF=           0 NShFF=           0 MinMC=     118
           NShCPU=           0 NBCPU=           0 AvBCPU=         0.0
           NShGPU=           0 NBGPU=           0 AvBGPU=         0.0
 IPart=  9 NShTot=           0 NShNF=           0 NShFF=           0 MinMC=     118
           NShCPU=           0 NBCPU=           0 AvBCPU=         0.0
           NShGPU=           0 NBGPU=           0 AvBGPU=         0.0
 CoulSu-ThDecC:  IPartSL=    5    0 NPrtUSL=   12    1 IThBeg=    0 IThEnd=   11 CPU=   -1 GPU=   -1 NThAct=    2.
 CoulSu-ThDecC:  IPartSL=    9    0 NPrtUSL=   12    1 IThBeg=    0 IThEnd=   11 CPU=   -1 GPU=   -1 NThAct=    1.
 CoulSu:  NxtVal=             13 LenVP=      357913093 MinMC=     118.
 Entering FocIrr
 FocIrr was handed  4294965290 working-precision words and     2 shell-pairs
 Leaving FocIrr
 Entering DenIrr
 DenIrr was handed  4294966672 working-precision words and     2 shell-pairs
 Leaving DenIrr, iEnd w/o den=        1437 nHerm=          23.
 CoulSu-InSpLW:  IPartL=    0 NPrtUS=   12 NPrtUL=    1 DoSpLW=F IThBeg=    0 IThEnd=   11 NThAct=   12.
[...]
                 6 
      1   0.000000D+00
      2   0.000000D+00
      3   0.000000D+00
      4  -0.313945D+00
      5   0.372628D+00
      6   0.000000D+00

 Beta transition density matrix between excited states   8 and   7
                 1             2             3             4             5 
      1   0.000000D+00  0.000000D+00  0.000000D+00  0.000000D+00  0.000000D+00
      2   0.000000D+00  0.000000D+00  0.000000D+00  0.000000D+00  0.000000D+00
      3   0.000000D+00  0.000000D+00  0.000000D+00  0.000000D+00  0.000000D+00
      4  -0.394969D+00 -0.297673D-01  0.246084D+00  0.000000D+00  0.000000D+00
      5   0.468798D+00  0.353314D-01 -0.292082D+00  0.000000D+00  0.000000D+00
      6   0.000000D+00  0.000000D+00  0.000000D+00  0.000000D+00  0.000000D+00
                 6 
      1   0.000000D+00
      2   0.000000D+00
      3   0.000000D+00
      4  -0.313945D+00
      5   0.372628D+00
      6   0.000000D+00
 Excited to excited state transition electric dipole moments (Au):
     state I   state J         X           Y           Z        Dip. S.      Osc.
         2        1        -1.0490     -0.8255     -0.0000      1.7818      0.0717
         3        1         0.8255     -1.0490     -0.0000      1.7818      0.0717
         3        2        -0.0000     -0.0000      0.0000      0.0000      0.0000
         4        1        -0.0000     -0.0000     -0.8466      0.7167      0.2293
         4        2         0.7297      0.5742     -0.0000      0.8622      0.2412
         4        3        -0.5742      0.7297     -0.0000      0.8622      0.2412
         5        1         0.0000     -0.0000     -0.1296      0.0168      0.0213
         5        2         0.0054      0.0043      0.0000      0.0000      0.0001
         5        3        -0.0043      0.0054      0.0000      0.0000      0.0001
         5        4         0.0000     -0.0000     -0.0056      0.0000      0.0000
         6        1        -0.0058     -0.0049     -0.0000      0.0001      0.0001
         6        2         0.0000     -0.0000     -0.1393      0.0194      0.0246
         6        3         0.0000     -0.0000     -0.0047      0.0000      0.0000
         6        4         0.0108      0.0091     -0.0000      0.0002      0.0002
         6        5        -1.0157     -0.8558     -0.0000      1.7640      0.0731
         7        1         0.0049     -0.0058     -0.0000      0.0001      0.0001
         7        2        -0.0000      0.0000      0.0047      0.0000      0.0000
         7        3         0.0000     -0.0000     -0.1393      0.0194      0.0246
         7        4        -0.0091      0.0108     -0.0000      0.0002      0.0002
         7        5         0.8558     -1.0157     -0.0000      1.7640      0.0731
         7        6        -0.0000     -0.0000      0.0000      0.0000      0.0000
         8        1         0.0000      0.0000     -0.0077      0.0001      0.0001
         8        2        -0.0117     -0.0092      0.0000      0.0002      0.0003
         8        3         0.0092     -0.0117      0.0000      0.0002      0.0003
         8        4         0.0000     -0.0000     -0.1105      0.0122      0.0156
         8        5        -0.0000     -0.0000     -0.8222      0.6760      0.2235
         8        6         0.7174      0.6044     -0.0000      0.8800      0.2545
         8        7        -0.6044      0.7174     -0.0000      0.8800      0.2545
 Excited to excited state transition velocity dipole moments (Au):
     state I   state J         X           Y           Z        Dip. S.      Osc.
         2        1         0.0698      0.0549      0.0000      0.0079      0.0871
         3        1        -0.0549      0.0698     -0.0000      0.0079      0.0871
         3        2        -0.0000     -0.0000      0.0000      0.0000      0.0000
         4        1         0.0000      0.0000      0.1790      0.0320      0.0445
         4        2        -0.0624     -0.0491      0.0000      0.0063      0.0100
         4        3         0.0491     -0.0624      0.0000      0.0063      0.0100
         5        1        -0.0000      0.0000      0.1761      0.0310      0.0109
         5        2         0.0001      0.0001      0.0000      0.0000      0.0000
         5        3        -0.0001      0.0001      0.0000      0.0000      0.0000
         5        4        -0.0000      0.0000     -0.0002      0.0000      0.0000
         6        1         0.0001      0.0001      0.0000      0.0000      0.0000
         6        2        -0.0000      0.0000      0.1752      0.0307      0.0107
         6        3        -0.0000      0.0000      0.0059      0.0000      0.0000
         6        4         0.0006      0.0005     -0.0000      0.0000      0.0000
         6        5         0.0684      0.0576      0.0000      0.0080      0.0858
         7        1        -0.0001      0.0001      0.0000      0.0000      0.0000
         7        2         0.0000     -0.0000     -0.0059      0.0000      0.0000
         7        3        -0.0000      0.0000      0.1752      0.0307      0.0107
         7        4        -0.0005      0.0006     -0.0000      0.0000      0.0000
         7        5        -0.0576      0.0684     -0.0000      0.0080      0.0858
         7        6        -0.0000     -0.0000     -0.0000      0.0000      0.0000
         8        1         0.0000     -0.0000     -0.0028      0.0000      0.0000
         8        2         0.0006      0.0005     -0.0000      0.0000      0.0000
         8        3        -0.0005      0.0006     -0.0000      0.0000      0.0000
         8        4        -0.0000      0.0000      0.1745      0.0304      0.0106
         8        5         0.0000      0.0000      0.1788      0.0320      0.0430
         8        6        -0.0602     -0.0507      0.0000      0.0062      0.0095
         8        7         0.0507     -0.0602      0.0000      0.0062      0.0095
 Excited to excited state transition magnetic dipole moments (Au):
     state I   state J         X           Y           Z
         2        1        -0.5098      0.6478      0.0000
         3        1        -0.6478     -0.5098     -0.0000
         3        2        -0.0000     -0.0000      1.0000
         4        1        -0.0000      0.0000     -0.0000
         4        2         0.2784     -0.3538      0.0000
         4        3         0.3538      0.2784     -0.0000
         5        1        -0.0000     -0.0000      0.0000
         5        2        -0.0014      0.0018      0.0000
         5        3        -0.0018     -0.0014     -0.0000
         5        4         0.0000     -0.0000      0.0000
         6        1        -0.0013      0.0015      0.0000
         6        2        -0.0000     -0.0000     -0.0000
         6        3        -0.0000     -0.0000      0.0000
         6        4        -0.0025      0.0029     -0.0000
         6        5        -0.5332      0.6329      0.0000
         7        1        -0.0015     -0.0013     -0.0000
         7        2         0.0000      0.0000      0.0000
         7        3        -0.0000     -0.0000      0.0000
         7        4        -0.0029     -0.0025      0.0000
         7        5        -0.6329     -0.5332     -0.0000
         7        6        -0.0000     -0.0000      1.0000
         8        1         0.0000      0.0000      0.0000
         8        2        -0.0020      0.0026     -0.0000
         8        3        -0.0026     -0.0020      0.0000
         8        4        -0.0000     -0.0000      0.0000
         8        5        -0.0000      0.0000     -0.0000
         8        6         0.2863     -0.3398      0.0000
         8        7         0.3398      0.2863     -0.0000

 Excitation energies and oscillator strengths:
 
 Excited state symmetry could not be determined.
 Excited State   1:      Singlet-?Sym    4.5813 eV  270.63 nm  f=0.0312  <S**2>=0.000
       1 ->  3        -0.00448
       1 ->  6        -0.00202
       2 ->  3         0.70667
       2 ->  6         0.02444
 This state for optimization and/or second-order correction.
 Total Energy, E(CIS/TDA) =  -7.69494684257    
 Copying the excited state density for this state as the 1-particle RhoCI density.
    CIS Density (Total): 
                1             2             3             4             5 
      1  0.306237D+00
      2 -0.590237D-01  0.203465D+01
      3  0.173148D+00 -0.170216D+00  0.804416D+00
      4  0.000000D+00  0.000000D+00  0.000000D+00  0.000000D+00
      5  0.000000D+00  0.000000D+00  0.000000D+00  0.000000D+00  0.000000D+00
      6 -0.250217D+00 -0.619155D-01  0.345346D+00  0.000000D+00  0.000000D+00
                6 
      6  0.540073D+00
 
 Excited state symmetry could not be determined.
 Excited State   2:      Singlet-?Sym    6.2246 eV  199.18 nm  f=0.2878  <S**2>=0.000
       1 ->  4        -0.00725
       2 ->  4         0.70412
       2 ->  5        -0.06453
 
 Excited state symmetry could not be determined.
 Excited State   3:      Singlet-?Sym    6.2246 eV  199.18 nm  f=0.2878  <S**2>=0.000
       1 ->  5        -0.00725
       2 ->  4         0.06453
       2 ->  5         0.70412
 
 Excited state symmetry could not be determined.
 Excited State   4:      Singlet-?Sym   17.6430 eV   70.27 nm  f=0.3781  <S**2>=0.000
       1 ->  3        -0.00148
       1 ->  6         0.00131
       2 ->  3        -0.02445
       2 ->  6         0.70668
 
 Excited state symmetry could not be determined.
 Excited State   5:      Singlet-?Sym   56.3975 eV   21.98 nm  f=0.0638  <S**2>=0.000
       1 ->  3         0.70647
       1 ->  6         0.02950
       2 ->  3         0.00451
       2 ->  6         0.00158
 
 Excited state symmetry could not be determined.
 Excited State   6:      Singlet-?Sym   58.0877 eV   21.34 nm  f=0.1331  <S**2>=0.000
       1 ->  4         0.70588
       1 ->  5        -0.04098
       2 ->  4         0.00727
 
 Excited state symmetry could not be determined.
 Excited State   7:      Singlet-?Sym   58.0877 eV   21.34 nm  f=0.1331  <S**2>=0.000
       1 ->  4         0.04098
       1 ->  5         0.70588
       2 ->  5         0.00727
 
 Excited state symmetry could not be determined.
 Excited State   8:      Singlet-?Sym   69.8907 eV   17.74 nm  f=0.0393  <S**2>=0.000
       1 ->  3        -0.02951
       1 ->  6         0.70649
       2 ->  3         0.00188
       2 ->  6        -0.00131
 SavETr:  write IOETrn=   770 NScale= 10 NData=  16 NLR=1 NState=    8 LETran=     154.
 Leave Link  914 at Sun Jun  7 12:39:18 2020, MaxMem=  4294967296 cpu:               1.7 elap:               0.2
 (Enter /opt/gaussian/gdv-20180628-i14+/gdv/l601.exe)
 GetPMM: IRwPM=  824 LRwPM=    0 LPMAll=    2
 GetPCM: File not found, return IValue=0.
 Copying SCF densities to generalized density rwf, IOpCl= 0 IROHF=0.

 **********************************************************************

            Population analysis using the SCF Density.

 **********************************************************************

 Alpha  occ. eigenvalues --   -2.34732  -0.29113
 Alpha virt. eigenvalues --    0.07879   0.16384   0.16384   0.56664
     Density Matrix:
                           1         2         3         4         5
   1 1   H  1S          0.59491
   2 2   Li 1S         -0.17553   2.02403
   3        2S          0.49002  -0.09057   0.40510
   4        2PX         0.00000   0.00000   0.00000   0.00000
   5        2PY        -0.00000   0.00000  -0.00000  -0.00000   0.00000
   6        2PZ        -0.38000   0.13360  -0.31242  -0.00000   0.00000
                           6
   6        2PZ         0.24297
          Condensed to atoms (all electrons):
               1          2
     1  H    0.594907   0.388339
     2  Li   0.388339   2.628415
 Mulliken charges:
               1
     1  H    0.016754
     2  Li  -0.016754
 Sum of Mulliken charges =   0.00000
 Mulliken charges with hydrogens summed into heavy atoms:
               1
     2  Li   0.000000
 DipInt: DoE/N= T F RetVal/Mat= T F Init=T NMatP=  1 IDeriv=0 Min/MaxMlt=  0  4
 Entering OneElI...
 OneElI was handed  4294966980 working-precision words.
 Multipole integrals L=0 to 4 MinM= 0 MaxM= 0.
 Requested accuracy = 0.1000D-12
 ShPair: Thresh= 1.00D-13 NBox=     0 BxSize= 0.00D+00 RnKept= 2.89D+00
         NSMCal=                    6 NSMKep=                   6
 PrmmSu-InSpLW:  IPartL=    0 NPrtUS=    1 NPrtUL=    1 DoSpLW=F IThBeg=    0 IThEnd=    0 NThAct=    1.
 PrSmSu:  IncTry=   512 NBBP=              6 NTPThr=   100 NPartT=    1 Incr=           1 LDynOK=F GPUOK=F.
 PrsmSu:  NPrtUS=   1 ThrOK=F IAlg=2 LenDen=           0 ISkipM=0 DoSpLW=F IThBeg=    0 IThEnd=    0.
 Prism:   IPart=     0 DynPar=F LinDyn=F Incr=           1.
 PRISM was handed  4294964906 working-precision words and     6 shell-pairs
 IPart=  0 NShTot=           6 NBatch=           3 AvBLen=         2.0
 PrsmSu-ThDecC:  IPartSL=    0    0 NPrtUSL=    1    1 IThBeg=    0 IThEnd=    0 CPU=   -1 GPU=   -1 NThAct=    1.
 PrSmSu:  NxtVal=              2.
 Electronic moments (au):
         -4.00000000         -0.00000000          0.00000000         -0.98596452
         -3.89941488         -3.89941488         -9.38596252          0.00000000
         -0.00000000          0.00000000         -0.00000000          0.00000000
          2.28324499         -0.00000000          0.00000000          1.87733105
         -0.00000000          0.00000000          1.87733105          0.00000000
        -32.66373445        -32.66373445        -47.74754271          0.00000000
         -0.00000000          0.00000000          0.00000000         -0.00000000
          0.00000000        -10.88791148        -10.70384901        -10.70384901
          0.00000000         -0.00000000          0.00000000
 Electronic spatial extent (au):  <R**2>=             17.1848
 DipInt: DoE/N= F T RetVal/Mat= T F Init=T NMatP=  1 IDeriv=0 Min/MaxMlt=  0  4
 Nuclear    moments (au):
          4.00000000          0.00000000          0.00000000          2.89128097
          0.00000000          0.00000000          8.35950565          0.00000000
          0.00000000          0.00000000          0.00000000          0.00000000
          6.04241990          0.00000000          0.00000000          0.00000000
          0.00000000          0.00000000          0.00000000          0.00000000
          0.00000000          0.00000000         17.47033368          0.00000000
          0.00000000          0.00000000          0.00000000          0.00000000
          0.00000000          0.00000000          0.00000000          0.00000000
          0.00000000          0.00000000          0.00000000
 Total      moments (au):
          0.00000000         -0.00000000          0.00000000          1.90531646
         -3.89941488         -3.89941488         -1.02645687          0.00000000
         -0.00000000          0.00000000         -0.00000000          0.00000000
          8.32566490         -0.00000000          0.00000000          1.87733105
         -0.00000000          0.00000000          1.87733105          0.00000000
        -32.66373445        -32.66373445        -30.27720903          0.00000000
         -0.00000000          0.00000000          0.00000000         -0.00000000
          0.00000000        -10.88791148        -10.70384901        -10.70384901
          0.00000000         -0.00000000          0.00000000
 Charge=              0.0000 electrons
 Dipole moment (field-independent basis, Debye):
    X=             -0.0000    Y=              0.0000    Z=              4.8428  Tot=              4.8428
 Quadrupole moment (field-independent basis, Debye-Ang):
   XX=             -5.2448   YY=             -5.2448   ZZ=             -1.3806
   XY=              0.0000   XZ=             -0.0000   YZ=              0.0000
 Traceless Quadrupole moment (field-independent basis, Debye-Ang):
   XX=             -1.2881   YY=             -1.2881   ZZ=              2.5762
   XY=              0.0000   XZ=             -0.0000   YZ=              0.0000
 Octapole moment (field-independent basis, Debye-Ang**2):
  XXX=             -0.0000  YYY=              0.0000  ZZZ=              5.9259  XYY=             -0.0000
  XXY=              0.0000  XXZ=              1.3362  XZZ=             -0.0000  YZZ=              0.0000
  YYZ=              1.3362  XYZ=              0.0000
 Hexadecapole moment (field-independent basis, Debye-Ang**3):
 XXXX=            -12.3027 YYYY=            -12.3027 ZZZZ=            -11.4038 XXXY=              0.0000
 XXXZ=             -0.0000 YYYX=              0.0000 YYYZ=              0.0000 ZZZX=             -0.0000
 ZZZY=              0.0000 XXYY=             -4.1009 XXZZ=             -4.0316 YYZZ=             -4.0316
 XXYZ=              0.0000 YYXZ=             -0.0000 ZZXY=              0.0000
 N-N= 1.037602374353D+00 E-N=-2.049738713783D+01  KE= 7.972467530123D+00
 Leave Link  601 at Sun Jun  7 12:39:18 2020, MaxMem=  4294967296 cpu:               0.2 elap:               0.0
 (Enter /opt/gaussian/gdv-20180628-i14+/gdv/l9999.exe)
 Electronic transition elements 
                 1             2             3             4             5 
      1  -0.769495D+01 -0.763456D+01 -0.763456D+01 -0.721494D+01 -0.579074D+01
      2   0.000000D+00 -0.107954D+01  0.849541D+00  0.000000D+00  0.000000D+00
      3   0.000000D+00 -0.849541D+00 -0.107954D+01  0.000000D+00  0.000000D+00
      4  -0.527275D+00  0.000000D+00  0.000000D+00  0.935290D+00 -0.214900D+00
      5   0.000000D+00  0.152985D+00 -0.120391D+00  0.000000D+00  0.000000D+00
      6   0.000000D+00  0.120391D+00  0.152985D+00  0.000000D+00  0.000000D+00
      7   0.119009D+00  0.000000D+00  0.000000D+00 -0.279945D+00  0.346222D+00
      8   0.000000D+00  0.381287D+00  0.484514D+00  0.000000D+00  0.000000D+00
      9   0.000000D+00 -0.484514D+00  0.381287D+00  0.000000D+00  0.000000D+00
     10   0.000000D+00  0.000000D+00  0.000000D+00  0.000000D+00  0.000000D+00
     11   0.487088D-01  0.000000D+00  0.000000D+00 -0.611017D+00  0.255828D+00
     12   0.487088D-01  0.000000D+00  0.000000D+00 -0.611017D+00  0.255828D+00
     13   0.298725D+00  0.000000D+00  0.000000D+00  0.225010D+00  0.124375D+01
     14   0.000000D+00  0.000000D+00  0.000000D+00  0.000000D+00  0.000000D+00
     15   0.000000D+00  0.870746D-01 -0.685231D-01  0.000000D+00  0.000000D+00
     16   0.000000D+00  0.685231D-01  0.870746D-01  0.000000D+00  0.000000D+00
                 6             7             8 
      1  -0.572862D+01 -0.572862D+01 -0.529487D+01
      2  -0.233850D+00  0.197023D+00  0.000000D+00
      3  -0.197023D+00 -0.233850D+00  0.000000D+00
      4   0.000000D+00  0.000000D+00 -0.151529D+00
      5   0.395823D+00 -0.333487D+00  0.000000D+00
      6   0.333487D+00  0.395823D+00  0.000000D+00
      7   0.000000D+00  0.000000D+00  0.346357D+00
      8  -0.479497D+00 -0.569126D+00  0.000000D+00
      9   0.569126D+00 -0.479497D+00  0.000000D+00
     10   0.000000D+00  0.000000D+00  0.000000D+00
     11   0.000000D+00  0.000000D+00 -0.187852D+00
     12   0.000000D+00  0.000000D+00 -0.187852D+00
     13   0.000000D+00  0.000000D+00  0.104502D+01
     14   0.000000D+00  0.000000D+00  0.000000D+00
     15   0.569408D+00 -0.479735D+00  0.000000D+00
     16   0.479735D+00  0.569408D+00  0.000000D+00

 Test job not archived.
 1\1\GINC-NODE05\SP\RCIS-FC\STO-3G\H1Li1\KRANKA\07-Jun-2020\0\\#p hf/st
 o-3g CIS(NStates=30,Root=1,AllTransitionDensities,Singlets) nosymm IOp
 (3/33=3,3/36=1,4/33=3,5/33=3,5/72=-3,6/8=1,6/33=3,8/10=90,9/33=3,9/40=
 3)\\CIS calculation\\0,1\H,0,0.,0.,-0.765\Li,0,0.,0.,0.765\\Version=ES
 64L-GDVRevI.14+\HF=-7.8633071\RMSD=2.019e-09\PG=C*V [C*(H1Li1)]\\@


 UNDER MOST GREENE GRASSE LY MOST GREATE SNAKES.
 -- PROVERBS AND REASONS OF THE YEAR 1585
           AS REPRINTED IN PAISLEY MAGAZINE 1828.
 Job cpu time:       0 days  0 hours  0 minutes 10.7 seconds.
 Elapsed time:       0 days  0 hours  0 minutes  1.2 seconds.
 File lengths (MBytes):  RWF=      6 Int=      0 D2E=      0 Chk=      2 Scr=      1
 Normal termination of Gaussian DV at Sun Jun  7 12:39:18 2020.
