************************************************************
This is node11.cluster of cluster Pinconning.
Date: Sun May 17 05:09:51 PDT 2020
************************************************************
 Set GAUSS_MDEF to "32GB".
 Set GAUSS_PDEF to "12".
 Entering Gaussian System, Link 0=gdv
 Initial command:
 /opt/gaussian/gdv-20180628-i14+/gdv/l1.exe "/tmp/721441.1.allnodes.q/Gau-16485.inp" -scrdir="/tmp/721441.1.allnodes.q/"
 Default is to use a total of  12 processors:
                               12 via shared-memory
                                1 via Linda
 Entering Link 1 = /opt/gaussian/gdv-20180628-i14+/gdv/l1.exe PID=     16486.
  
 Copyright (c) 1988-2018, Gaussian, Inc.  All Rights Reserved.
  
 This is the private, development version of
 the Gaussian(R) DV system of programs. It is based on
 the Gaussian(R) 16 system (copyright 2016, Gaussian, Inc.),
 the Gaussian(R) 09 system (copyright 2009, Gaussian, Inc.),
 the Gaussian(R) 03 system (copyright 2003, Gaussian, Inc.),
 the Gaussian(R) 98 system (copyright 1998, Gaussian, Inc.),
 the Gaussian(R) 94 system (copyright 1995, Gaussian, Inc.),
 the Gaussian 92(TM) system (copyright 1992, Gaussian, Inc.),
 the Gaussian 90(TM) system (copyright 1990, Gaussian, Inc.),
 the Gaussian 88(TM) system (copyright 1988, Gaussian, Inc.),
 the Gaussian 86(TM) system (copyright 1986, Carnegie Mellon
 University), and the Gaussian 82(TM) system (copyright 1983,
 Carnegie Mellon University). Gaussian is a federally registered
 trademark of Gaussian, Inc.
  
 This software contains proprietary and confidential information,
 including trade secrets, belonging to Gaussian, Inc.
  
 This software is provided under written license and may be
 used, copied, transmitted, or stored only in accord with that
 written license.
  
 The following legend is applicable only to US Government
 contracts under FAR:
  
                    RESTRICTED RIGHTS LEGEND
  
 Use, reproduction and disclosure by the US Government is
 subject to restrictions as set forth in subparagraphs (a)
 and (c) of the Commercial Computer Software - Restricted
 Rights clause in FAR 52.227-19.
  
 Gaussian, Inc.
 340 Quinnipiac St., Bldg. 40, Wallingford CT 06492
  
  
 ---------------------------------------------------------------
 Warning -- This program may not be used in any manner that
 competes with the business of Gaussian, Inc. or will provide
 assistance to any competitor of Gaussian, Inc.  The licensee
 of this program is prohibited from giving any competitor of
 Gaussian, Inc. access to this program.  By using this program,
 the user acknowledges that Gaussian, Inc. is engaged in the
 business of creating and licensing software in the field of
 computational chemistry and represents and warrants to the
 licensee that it is not a competitor of Gaussian, Inc. and that
 it will not use this program in any manner prohibited above.
 ---------------------------------------------------------------
  

 Cite this work as:
 Gaussian Development Version, Revision I.14+,
 M. J. Frisch, G. W. Trucks, H. B. Schlegel, G. E. Scuseria, 
 M. A. Robb, J. R. Cheeseman, G. Scalmani, V. Barone, 
 G. A. Petersson, H. Nakatsuji, X. Li, M. Caricato, A. V. Marenich, 
 J. Bloino, B. G. Janesko, R. Gomperts, B. Mennucci, H. P. Hratchian, 
 J. V. Ortiz, A. F. Izmaylov, J. L. Sonnenberg, D. Williams-Young, 
 F. Ding, F. Lipparini, F. Egidi, J. Goings, B. Peng, A. Petrone, 
 T. Henderson, D. Ranasinghe, V. G. Zakrzewski, J. Gao, N. Rega, 
 G. Zheng, W. Liang, M. Hada, M. Ehara, K. Toyota, R. Fukuda, 
 J. Hasegawa, M. Ishida, T. Nakajima, Y. Honda, O. Kitao, H. Nakai, 
 T. Vreven, K. Throssell, J. A. Montgomery, Jr., J. E. Peralta, 
 F. Ogliaro, M. J. Bearpark, J. J. Heyd, E. N. Brothers, K. N. Kudin, 
 V. N. Staroverov, T. A. Keith, R. Kobayashi, J. Normand, 
 K. Raghavachari, A. P. Rendell, J. C. Burant, S. S. Iyengar, 
 J. Tomasi, M. Cossi, J. M. Millam, M. Klene, C. Adamo, R. Cammi, 
 J. W. Ochterski, R. L. Martin, K. Morokuma, O. Farkas, 
 J. B. Foresman, and D. J. Fox, Gaussian, Inc., Wallingford CT, 2018.
 
 *******************************************
 Gaussian DV:  ES64L-GDVRevI.14+ 23-Jun-2018
                 17-May-2020 
 *******************************************
 %chk=casscf43_s0_sys1_h_sto-3g_root9.chk
 %oldchk=casscf43_s0_sys1_h_sto-3g_root6.chk
 Copying data from "casscf43_s0_sys1_h_sto-3g_root6.chk" to current chk file "casscf43_s0_sys1_h_sto-3g_root9.chk"
 IOpt=  2 FromEx=T IUOpen= 4 IOptOp= 5 NList=   0 IFRang= 0 IUIn= 4 IUOut= 2.
 ----------------------------------------------------------------------
 #P CASSCF(4,3,fulldiag,NRoot=9,StateAverage,SaveGEDensities,QC)/sto-3g
  scf(tight,maxcyc=1500) nosymm iop(6/8=1,3/33=3,3/36=1,4/33=3,5/33=3,6
 /33=3,9/33=3,5/72=-3) guess=read
 ----------------------------------------------------------------------
 1/38=1,172=1/1;
 2/12=2,15=1,17=6,18=5,40=1/2;
 3/6=3,25=1,33=3,36=1,116=101/1,2,3;
 4/5=1,17=4,18=3,21=10,33=3,43=1/1,5;
 5/5=2,7=1500,17=11000100,28=9,32=2,33=3,38=6,72=-3/10;
 6/7=2,8=1,9=2,10=2,28=1,33=3/1;
 99/5=1,9=1/99;
 Leave Link    1 at Sun May 17 05:09:51 2020, MaxMem=  4294967296 cpu:               0.9 elap:               0.1
 (Enter /opt/gaussian/gdv-20180628-i14+/gdv/l101.exe)
 ------------
 CASSCF calc.
 ------------
 Symbolic Z-matrix:
 Charge =  0 Multiplicity = 1
 C                     0.80047  -0.66509  -0.11827 
 C                     2.00688  -0.11078   0.11778 
 N                    -0.42044  -0.02054  -0.25877 
 H                     0.72728  -1.74301  -0.25651 
 H                     2.88973  -0.74049   0.12699 
 H                     2.1558    0.95118   0.28205 
 C                    -0.46614   1.407    -0.00277 
 C                    -1.60885  -0.76328   0.1366 
 H                     0.28052   1.9183   -0.61906 
 H                    -0.26928   1.65331   1.05622 
 H                    -1.45497   1.79021  -0.27221 
 H                    -1.76538  -0.76587   1.23004 
 H                    -1.52099  -1.80168  -0.19844 
 H                    -2.49378  -0.32528  -0.33773 
 
 ITRead=  0  0  0  0  0  0  0  0  0  0  0  0  0  0
 MicOpt= -1 -1 -1 -1 -1 -1 -1 -1 -1 -1 -1 -1 -1 -1
 NAtoms=     14 NQM=       14 NQMF=       0 NMMI=      0 NMMIF=      0
                NMic=       0 NMicF=      0.
                    Isotopes and Nuclear Properties:
 (Nuclear quadrupole moments (NQMom) in fm**2, nuclear magnetic moments (NMagM)
  in nuclear magnetons)

  Atom         1           2           3           4           5           6           7           8           9          10
 IAtWgt=          12          12          14           1           1           1          12          12           1           1
 AtmWgt=  12.0000000  12.0000000  14.0030740   1.0078250   1.0078250   1.0078250  12.0000000  12.0000000   1.0078250   1.0078250
 NucSpn=           0           0           2           1           1           1           0           0           1           1
 AtZEff=  -0.0000000  -0.0000000  -0.0000000  -0.0000000  -0.0000000  -0.0000000  -0.0000000  -0.0000000  -0.0000000  -0.0000000
 NQMom=    0.0000000   0.0000000   2.0440000   0.0000000   0.0000000   0.0000000   0.0000000   0.0000000   0.0000000   0.0000000
 NMagM=    0.0000000   0.0000000   0.4037610   2.7928460   2.7928460   2.7928460   0.0000000   0.0000000   2.7928460   2.7928460
 AtZNuc=   6.0000000   6.0000000   7.0000000   1.0000000   1.0000000   1.0000000   6.0000000   6.0000000   1.0000000   1.0000000

  Atom        11          12          13          14
 IAtWgt=           1           1           1           1
 AtmWgt=   1.0078250   1.0078250   1.0078250   1.0078250
 NucSpn=           1           1           1           1
 AtZEff=  -0.0000000  -0.0000000  -0.0000000  -0.0000000
 NQMom=    0.0000000   0.0000000   0.0000000   0.0000000
 NMagM=    2.7928460   2.7928460   2.7928460   2.7928460
 AtZNuc=   1.0000000   1.0000000   1.0000000   1.0000000
 Leave Link  101 at Sun May 17 05:09:51 2020, MaxMem=  4294967296 cpu:               1.5 elap:               0.2
 (Enter /opt/gaussian/gdv-20180628-i14+/gdv/l202.exe)
                          Input orientation:                          
 ---------------------------------------------------------------------
 Center     Atomic      Atomic             Coordinates (Angstroms)
 Number     Number       Type             X           Y           Z
 ---------------------------------------------------------------------
      1          6           0        0.800470   -0.665090   -0.118270
      2          6           0        2.006880   -0.110780    0.117780
      3          7           0       -0.420440   -0.020540   -0.258770
      4          1           0        0.727280   -1.743010   -0.256510
      5          1           0        2.889730   -0.740490    0.126990
      6          1           0        2.155800    0.951180    0.282050
      7          6           0       -0.466140    1.407000   -0.002770
      8          6           0       -1.608850   -0.763280    0.136600
      9          1           0        0.280520    1.918300   -0.619060
     10          1           0       -0.269280    1.653310    1.056220
     11          1           0       -1.454970    1.790210   -0.272210
     12          1           0       -1.765380   -0.765870    1.230040
     13          1           0       -1.520990   -1.801680   -0.198440
     14          1           0       -2.493780   -0.325280   -0.337730
 ---------------------------------------------------------------------
                    Distance matrix (angstroms):
                    1          2          3          4          5
     1  C    0.000000
     2  C    1.348482   0.000000
     3  N    1.387734   2.458010   0.000000
     4  H    1.089210   2.107521   2.069823   0.000000
     5  H    2.104957   1.084455   3.409452   2.414189   0.000000
     6  H    2.146976   1.084860   2.806018   3.096672   1.850525
     7  C    2.431296   2.904138   1.451032   3.378047   3.986278
     8  C    2.424752   3.674182   1.456124   2.563574   4.498648
     9  H    2.682358   2.764131   2.092906   3.706242   3.799175
    10  H    2.810475   3.028793   2.133969   3.775100   4.071006
    11  H    3.337545   3.968660   2.085485   4.152843   5.043830
    12  H    2.900290   3.987005   2.140312   3.062350   4.784079
    13  H    2.586009   3.924921   2.094591   2.249785   4.548239
    14  H    3.318993   4.528735   2.097103   3.520196   5.419460
                    6          7          8          9         10
     6  H    0.000000
     7  C    2.676465   0.000000
     8  C    4.139217   2.456690   0.000000
     9  H    2.294340   1.094871   3.366246   0.000000
    10  H    2.640708   1.104935   2.912054   1.782993   0.000000
    11  H    3.748178   1.094181   2.590582   1.774440   1.785869
    12  H    4.384358   2.815885   1.104590   3.848330   2.849730
    13  H    4.618213   3.383286   1.094644   4.154589   3.883028
    14  H    4.861283   2.687809   1.095415   3.579042   3.287296
                   11         12         13         14
    11  H    0.000000
    12  H    2.981049   0.000000
    13  H    3.593254   1.781343   0.000000
    14  H    2.357693   1.783981   1.773550   0.000000
 Symmetry turned off by external request.
 Stoichiometry    C4H9N
 Framework group  C1[X(C4H9N)]
 Deg. of freedom    36
 Full point group                 C1      NOp   1
 Rotational constants (GHZ):           8.5255911           4.0522128           2.9014756
 Leave Link  202 at Sun May 17 05:09:51 2020, MaxMem=  4294967296 cpu:               0.1 elap:               0.0
 (Enter /opt/gaussian/gdv-20180628-i14+/gdv/l301.exe)
 Standard basis: STO-3G (5D, 7F)
                         Coordinates in L301:                         
 ---------------------------------------------------------------------
 Center     Atomic      Atomic             Coordinates (Angstroms)
 Number     Number       Type             X           Y           Z
 ---------------------------------------------------------------------
      1          6           0        0.800470   -0.665090   -0.118270
      2          6           0        2.006880   -0.110780    0.117780
      3          7           0       -0.420440   -0.020540   -0.258770
      4          1           0        0.727280   -1.743010   -0.256510
      5          1           0        2.889730   -0.740490    0.126990
      6          1           0        2.155800    0.951180    0.282050
      7          6           0       -0.466140    1.407000   -0.002770
      8          6           0       -1.608850   -0.763280    0.136600
      9          1           0        0.280520    1.918300   -0.619060
     10          1           0       -0.269280    1.653310    1.056220
     11          1           0       -1.454970    1.790210   -0.272210
     12          1           0       -1.765380   -0.765870    1.230040
     13          1           0       -1.520990   -1.801680   -0.198440
     14          1           0       -2.493780   -0.325280   -0.337730
 ---------------------------------------------------------------------
 FixB: optimizing general contractions.
 Ernie: Thresh=  0.10000D-02 Tol=  0.10000D-05 Strict=F.
 IA=     1 ShT= 0 ShC= 0 NL=   1 NS=   0.
         I=   1 JX=   3 NP=   3
 IA=     1 L=0 SC=0 ISt=    0 NBk=    0 NP=    0 IndPr=    0.
 IA=     1 ShT= 1 ShC= 0 NL=   1 NS=   0.
         I=   1 JX=   3 NP=   3
 IA=     1 L=1 SC=0 ISt=    0 NBk=    0 NP=    0 IndPr=    0.
 IA=     2 ShT= 0 ShC= 0 NL=   1 NS=   0.
         I=   1 JX=   3 NP=   3
 IA=     2 L=0 SC=0 ISt=    0 NBk=    0 NP=    0 IndPr=    0.
 IA=     2 ShT= 1 ShC= 0 NL=   1 NS=   0.
         I=   1 JX=   3 NP=   3
 IA=     2 L=1 SC=0 ISt=    0 NBk=    0 NP=    0 IndPr=    0.
 IA=     3 ShT= 0 ShC= 0 NL=   1 NS=   0.
         I=   1 JX=   3 NP=   3
 IA=     3 L=0 SC=0 ISt=    0 NBk=    0 NP=    0 IndPr=    0.
 IA=     3 ShT= 1 ShC= 0 NL=   1 NS=   0.
         I=   1 JX=   3 NP=   3
 IA=     3 L=1 SC=0 ISt=    0 NBk=    0 NP=    0 IndPr=    0.
 IA=     4 ShT= 0 ShC= 0 NL=   1 NS=   0.
         I=   1 JX=   3 NP=   3
 IA=     4 L=0 SC=0 ISt=    0 NBk=    0 NP=    0 IndPr=    0.
 IA=     5 ShT= 0 ShC= 0 NL=   1 NS=   0.
         I=   1 JX=   3 NP=   3
 IA=     5 L=0 SC=0 ISt=    0 NBk=    0 NP=    0 IndPr=    0.
 IA=     6 ShT= 0 ShC= 0 NL=   1 NS=   0.
         I=   1 JX=   3 NP=   3
 IA=     6 L=0 SC=0 ISt=    0 NBk=    0 NP=    0 IndPr=    0.
 IA=     7 ShT= 0 ShC= 0 NL=   1 NS=   0.
         I=   1 JX=   3 NP=   3
 IA=     7 L=0 SC=0 ISt=    0 NBk=    0 NP=    0 IndPr=    0.
 IA=     7 ShT= 1 ShC= 0 NL=   1 NS=   0.
         I=   1 JX=   3 NP=   3
 IA=     7 L=1 SC=0 ISt=    0 NBk=    0 NP=    0 IndPr=    0.
 IA=     8 ShT= 0 ShC= 0 NL=   1 NS=   0.
         I=   1 JX=   3 NP=   3
 IA=     8 L=0 SC=0 ISt=    0 NBk=    0 NP=    0 IndPr=    0.
 IA=     8 ShT= 1 ShC= 0 NL=   1 NS=   0.
         I=   1 JX=   3 NP=   3
 IA=     8 L=1 SC=0 ISt=    0 NBk=    0 NP=    0 IndPr=    0.
 IA=     9 ShT= 0 ShC= 0 NL=   1 NS=   0.
         I=   1 JX=   3 NP=   3
 IA=     9 L=0 SC=0 ISt=    0 NBk=    0 NP=    0 IndPr=    0.
 IA=    10 ShT= 0 ShC= 0 NL=   1 NS=   0.
         I=   1 JX=   3 NP=   3
 IA=    10 L=0 SC=0 ISt=    0 NBk=    0 NP=    0 IndPr=    0.
 IA=    11 ShT= 0 ShC= 0 NL=   1 NS=   0.
         I=   1 JX=   3 NP=   3
 IA=    11 L=0 SC=0 ISt=    0 NBk=    0 NP=    0 IndPr=    0.
 IA=    12 ShT= 0 ShC= 0 NL=   1 NS=   0.
         I=   1 JX=   3 NP=   3
 IA=    12 L=0 SC=0 ISt=    0 NBk=    0 NP=    0 IndPr=    0.
 IA=    13 ShT= 0 ShC= 0 NL=   1 NS=   0.
         I=   1 JX=   3 NP=   3
 IA=    13 L=0 SC=0 ISt=    0 NBk=    0 NP=    0 IndPr=    0.
 IA=    14 ShT= 0 ShC= 0 NL=   1 NS=   0.
         I=   1 JX=   3 NP=   3
 IA=    14 L=0 SC=0 ISt=    0 NBk=    0 NP=    0 IndPr=    0.
 Electric field displacement of shell     1 is  0.00D+00
 Electric field displacement of shell     2 is  0.00D+00
 Electric field displacement of shell     3 is  0.00D+00
 Electric field displacement of shell     4 is  0.00D+00
 Electric field displacement of shell     5 is  0.00D+00
 Electric field displacement of shell     6 is  0.00D+00
 Electric field displacement of shell     7 is  0.00D+00
 Electric field displacement of shell     8 is  0.00D+00
 Electric field displacement of shell     9 is  0.00D+00
 Electric field displacement of shell    10 is  0.00D+00
 Electric field displacement of shell    11 is  0.00D+00
 Electric field displacement of shell    12 is  0.00D+00
 Electric field displacement of shell    13 is  0.00D+00
 Electric field displacement of shell    14 is  0.00D+00
 Electric field displacement of shell    15 is  0.00D+00
 Electric field displacement of shell    16 is  0.00D+00
 Electric field displacement of shell    17 is  0.00D+00
 Electric field displacement of shell    18 is  0.00D+00
 Electric field displacement of shell    19 is  0.00D+00
 LdAtmC:  AtmChg=     6.000000     6.000000     7.000000     1.000000     1.000000
 LdAtmC:  AtmChg=     1.000000     6.000000     6.000000     1.000000     1.000000
 LdAtmC:  AtmChg=     1.000000     1.000000     1.000000     1.000000
 AtZEff=     -3.6000000     -3.6000000     -4.5500000     -1.0000000     -1.0000000
 AtZEff=     -1.0000000     -3.6000000     -3.6000000     -1.0000000     -1.0000000
 AtZEff=     -1.0000000     -1.0000000     -1.0000000     -1.0000000
    34 basis functions,   102 primitive gaussians,    34 cartesian basis functions
    20 alpha electrons       20 beta electrons
       nuclear repulsion energy       180.7883389650 Hartrees.
 IS=     1 IAt=     1 ISR=     1 T=0 IP=      1 IndIP=      1 IndIPD=      0 C=  2.707814D+00  0.000000D+00                             NZ=T
 IS=     1 IAt=     1 ISR=     1 T=0 IP=      2 IndIP=      2 IndIPD=      1 C=  2.618880D+00  0.000000D+00                             NZ=T
 IS=     1 IAt=     1 ISR=     1 T=0 IP=      3 IndIP=      3 IndIPD=      2 C=  8.161906D-01  0.000000D+00                             NZ=T
 IS=     2 IAt=     1 ISR=     2 T=1 IP=      1 IndIP=      4 IndIPD=      0 C= -1.600172D-01  8.560445D-01                             NZ=T
 IS=     2 IAt=     1 ISR=     2 T=1 IP=      2 IndIP=      5 IndIPD=      1 C=  2.140359D-01  5.383038D-01                             NZ=T
 IS=     2 IAt=     1 ISR=     2 T=1 IP=      3 IndIP=      6 IndIPD=      2 C=  1.615361D-01  8.527636D-02                             NZ=T
 IS=     3 IAt=     2 ISR=     1 T=0 IP=      1 IndIP=      7 IndIPD=      0 C=  2.707814D+00  0.000000D+00                             NZ=T
 IS=     3 IAt=     2 ISR=     1 T=0 IP=      2 IndIP=      8 IndIPD=      1 C=  2.618880D+00  0.000000D+00                             NZ=T
 IS=     3 IAt=     2 ISR=     1 T=0 IP=      3 IndIP=      9 IndIPD=      2 C=  8.161906D-01  0.000000D+00                             NZ=T
 IS=     4 IAt=     2 ISR=     2 T=1 IP=      1 IndIP=     10 IndIPD=      0 C= -1.600172D-01  8.560445D-01                             NZ=T
 IS=     4 IAt=     2 ISR=     2 T=1 IP=      2 IndIP=     11 IndIPD=      1 C=  2.140359D-01  5.383038D-01                             NZ=T
 IS=     4 IAt=     2 ISR=     2 T=1 IP=      3 IndIP=     12 IndIPD=      2 C=  1.615361D-01  8.527636D-02                             NZ=T
 IS=     5 IAt=     3 ISR=     1 T=0 IP=      1 IndIP=     13 IndIPD=      0 C=  3.454881D+00  0.000000D+00                             NZ=T
 IS=     5 IAt=     3 ISR=     1 T=0 IP=      2 IndIP=     14 IndIPD=      1 C=  3.341410D+00  0.000000D+00                             NZ=T
 IS=     5 IAt=     3 ISR=     1 T=0 IP=      3 IndIP=     15 IndIPD=      2 C=  1.041372D+00  0.000000D+00                             NZ=T
 IS=     6 IAt=     3 ISR=     2 T=1 IP=      1 IndIP=     16 IndIPD=      0 C= -1.931639D-01  1.171553D+00                             NZ=T
 IS=     6 IAt=     3 ISR=     2 T=1 IP=      2 IndIP=     17 IndIPD=      1 C=  2.583723D-01  7.367037D-01                             NZ=T
 IS=     6 IAt=     3 ISR=     2 T=1 IP=      3 IndIP=     18 IndIPD=      2 C=  1.949974D-01  1.167062D-01                             NZ=T
 IS=     7 IAt=     4 ISR=     1 T=0 IP=      1 IndIP=     19 IndIPD=      0 C=  2.769344D-01  0.000000D+00                             NZ=T
 IS=     7 IAt=     4 ISR=     1 T=0 IP=      2 IndIP=     20 IndIPD=      1 C=  2.678389D-01  0.000000D+00                             NZ=T
 IS=     7 IAt=     4 ISR=     1 T=0 IP=      3 IndIP=     21 IndIPD=      2 C=  8.347367D-02  0.000000D+00                             NZ=T
 IS=     8 IAt=     5 ISR=     1 T=0 IP=      1 IndIP=     22 IndIPD=      0 C=  2.769344D-01  0.000000D+00                             NZ=T
 IS=     8 IAt=     5 ISR=     1 T=0 IP=      2 IndIP=     23 IndIPD=      1 C=  2.678389D-01  0.000000D+00                             NZ=T
 IS=     8 IAt=     5 ISR=     1 T=0 IP=      3 IndIP=     24 IndIPD=      2 C=  8.347367D-02  0.000000D+00                             NZ=T
 IS=     9 IAt=     6 ISR=     1 T=0 IP=      1 IndIP=     25 IndIPD=      0 C=  2.769344D-01  0.000000D+00                             NZ=T
 IS=     9 IAt=     6 ISR=     1 T=0 IP=      2 IndIP=     26 IndIPD=      1 C=  2.678389D-01  0.000000D+00                             NZ=T
 IS=     9 IAt=     6 ISR=     1 T=0 IP=      3 IndIP=     27 IndIPD=      2 C=  8.347367D-02  0.000000D+00                             NZ=T
 IS=    10 IAt=     7 ISR=     1 T=0 IP=      1 IndIP=     28 IndIPD=      0 C=  2.707814D+00  0.000000D+00                             NZ=T
 IS=    10 IAt=     7 ISR=     1 T=0 IP=      2 IndIP=     29 IndIPD=      1 C=  2.618880D+00  0.000000D+00                             NZ=T
 IS=    10 IAt=     7 ISR=     1 T=0 IP=      3 IndIP=     30 IndIPD=      2 C=  8.161906D-01  0.000000D+00                             NZ=T
 IS=    11 IAt=     7 ISR=     2 T=1 IP=      1 IndIP=     31 IndIPD=      0 C= -1.600172D-01  8.560445D-01                             NZ=T
 IS=    11 IAt=     7 ISR=     2 T=1 IP=      2 IndIP=     32 IndIPD=      1 C=  2.140359D-01  5.383038D-01                             NZ=T
 IS=    11 IAt=     7 ISR=     2 T=1 IP=      3 IndIP=     33 IndIPD=      2 C=  1.615361D-01  8.527636D-02                             NZ=T
 IS=    12 IAt=     8 ISR=     1 T=0 IP=      1 IndIP=     34 IndIPD=      0 C=  2.707814D+00  0.000000D+00                             NZ=T
 IS=    12 IAt=     8 ISR=     1 T=0 IP=      2 IndIP=     35 IndIPD=      1 C=  2.618880D+00  0.000000D+00                             NZ=T
 IS=    12 IAt=     8 ISR=     1 T=0 IP=      3 IndIP=     36 IndIPD=      2 C=  8.161906D-01  0.000000D+00                             NZ=T
 IS=    13 IAt=     8 ISR=     2 T=1 IP=      1 IndIP=     37 IndIPD=      0 C= -1.600172D-01  8.560445D-01                             NZ=T
 IS=    13 IAt=     8 ISR=     2 T=1 IP=      2 IndIP=     38 IndIPD=      1 C=  2.140359D-01  5.383038D-01                             NZ=T
 IS=    13 IAt=     8 ISR=     2 T=1 IP=      3 IndIP=     39 IndIPD=      2 C=  1.615361D-01  8.527636D-02                             NZ=T
 IS=    14 IAt=     9 ISR=     1 T=0 IP=      1 IndIP=     40 IndIPD=      0 C=  2.769344D-01  0.000000D+00                             NZ=T
 IS=    14 IAt=     9 ISR=     1 T=0 IP=      2 IndIP=     41 IndIPD=      1 C=  2.678389D-01  0.000000D+00                             NZ=T
 IS=    14 IAt=     9 ISR=     1 T=0 IP=      3 IndIP=     42 IndIPD=      2 C=  8.347367D-02  0.000000D+00                             NZ=T
 IS=    15 IAt=    10 ISR=     1 T=0 IP=      1 IndIP=     43 IndIPD=      0 C=  2.769344D-01  0.000000D+00                             NZ=T
 IS=    15 IAt=    10 ISR=     1 T=0 IP=      2 IndIP=     44 IndIPD=      1 C=  2.678389D-01  0.000000D+00                             NZ=T
 IS=    15 IAt=    10 ISR=     1 T=0 IP=      3 IndIP=     45 IndIPD=      2 C=  8.347367D-02  0.000000D+00                             NZ=T
 IS=    16 IAt=    11 ISR=     1 T=0 IP=      1 IndIP=     46 IndIPD=      0 C=  2.769344D-01  0.000000D+00                             NZ=T
 IS=    16 IAt=    11 ISR=     1 T=0 IP=      2 IndIP=     47 IndIPD=      1 C=  2.678389D-01  0.000000D+00                             NZ=T
 IS=    16 IAt=    11 ISR=     1 T=0 IP=      3 IndIP=     48 IndIPD=      2 C=  8.347367D-02  0.000000D+00                             NZ=T
 IS=    17 IAt=    12 ISR=     1 T=0 IP=      1 IndIP=     49 IndIPD=      0 C=  2.769344D-01  0.000000D+00                             NZ=T
 IS=    17 IAt=    12 ISR=     1 T=0 IP=      2 IndIP=     50 IndIPD=      1 C=  2.678389D-01  0.000000D+00                             NZ=T
 IS=    17 IAt=    12 ISR=     1 T=0 IP=      3 IndIP=     51 IndIPD=      2 C=  8.347367D-02  0.000000D+00                             NZ=T
 IS=    18 IAt=    13 ISR=     1 T=0 IP=      1 IndIP=     52 IndIPD=      0 C=  2.769344D-01  0.000000D+00                             NZ=T
 IS=    18 IAt=    13 ISR=     1 T=0 IP=      2 IndIP=     53 IndIPD=      1 C=  2.678389D-01  0.000000D+00                             NZ=T
 IS=    18 IAt=    13 ISR=     1 T=0 IP=      3 IndIP=     54 IndIPD=      2 C=  8.347367D-02  0.000000D+00                             NZ=T
 IS=    19 IAt=    14 ISR=     1 T=0 IP=      1 IndIP=     55 IndIPD=      0 C=  2.769344D-01  0.000000D+00                             NZ=T
 IS=    19 IAt=    14 ISR=     1 T=0 IP=      2 IndIP=     56 IndIPD=      1 C=  2.678389D-01  0.000000D+00                             NZ=T
 IS=    19 IAt=    14 ISR=     1 T=0 IP=      3 IndIP=     57 IndIPD=      2 C=  8.347367D-02  0.000000D+00                             NZ=T
 IExCor=    0 DFT=F Ex=HF Corr=None ExCW=0 ScaHFX=  1.000000
 ScaDFX=  1.000000  1.000000  1.000000  1.000000
 IRadAn=      5 IRanWt=     -1 IRanGd=            0 ICorTp=0 IEmpDi=  4
 NAtoms=   14 NActive=   14 NUniq=   14 SFac= 1.00D+00 NAtFMM=   60 NAOKFM=F Big=F
 Integral buffers will be    131072 words long.
 Regular integral format.
 Two-electron integral symmetry is turned off.
 Pair potential:
 Leave Link  301 at Sun May 17 05:09:52 2020, MaxMem=  4294967296 cpu:               0.7 elap:               0.1
 (Enter /opt/gaussian/gdv-20180628-i14+/gdv/l302.exe)
 GetPMM: IRwPM=  824 LRwPM=    0 LPMAll=    2
 GetPCM: File not found, return IValue=0.
 NPDir=0 NMtPBC=     1 NCelOv=     1 NCel=       1 NClECP=     1 NCelD=      1
         NCelK=      1 NCelE2=     1 NClLst=     1 CellRange=     0.0.
 One-electron integrals computed using PRISM.
 Entering OneElI...
 OneElI was handed  4294965918 working-precision words.
 Calculate overlap and kinetic energy integrals
    NBasis =  34  MinDer = 0  MaxDer = 0
 Requested accuracy = 0.1000D-12
 ShPair: Thresh= 1.00D-13 NBox=     0 BxSize= 0.00D+00 RnKept= 1.02D+01
         NSMCal=                  190 NSMKep=                 188
 PrmmSu-InSpLW:  IPartL=    0 NPrtUS=   12 NPrtUL=    1 DoSpLW=F IThBeg=    0 IThEnd=   11 NThAct=   12.
 PrSmSu:  IncTry=   512 NBBP=            188 NTPThr=   100 NPartT=   12 Incr=           1 LDynOK=F GPUOK=F.
 PrsmSu:  NPrtUS=  12 ThrOK=T IAlg=1 LenDen=           0 ISkipM=0 DoSpLW=F IThBeg=    0 IThEnd=   11.
 Prism:   IPart=     0 DynPar=F LinDyn=F Incr=           1.
 PRISM was handed   357898042 working-precision words and   188 shell-pairs
 PRISM was handed   357898042 working-precision words and   188 shell-pairs
 PRISM was handed   357898042 working-precision words and   188 shell-pairs
 PRISM was handed   357898042 working-precision words and   188 shell-pairs
 PRISM was handed   357898042 working-precision words and   188 shell-pairs
 PRISM was handed   357898042 working-precision words and   188 shell-pairs
 PRISM was handed   357898042 working-precision words and   188 shell-pairs
 PRISM was handed   357898042 working-precision words and   188 shell-pairs
 PRISM was handed   357898042 working-precision words and   188 shell-pairs
 PRISM was handed   357898042 working-precision words and   188 shell-pairs
 PRISM was handed   357898042 working-precision words and   188 shell-pairs
 PRISM was handed   357898042 working-precision words and   188 shell-pairs
 IPart=  8 NShTot=          12 NBatch=           6 AvBLen=         2.0
 PrsmSu-ThDecC:  IPartSL=    8    0 NPrtUSL=   12    1 IThBeg=    0 IThEnd=   11 CPU=   -1 GPU=   -1 NThAct=   12.
 IPart=  4 NShTot=          17 NBatch=           8 AvBLen=         2.1
 PrsmSu-ThDecC:  IPartSL=    4    0 NPrtUSL=   12    1 IThBeg=    0 IThEnd=   11 CPU=   -1 GPU=   -1 NThAct=   11.
 IPart=  1 NShTot=          21 NBatch=          11 AvBLen=         1.9
 PrsmSu-ThDecC:  IPartSL=    1    0 NPrtUSL=   12    1 IThBeg=    0 IThEnd=   11 CPU=   -1 GPU=   -1 NThAct=   10.
 IPart= 11 NShTot=          11 NBatch=           6 AvBLen=         1.8
 PrsmSu-ThDecC:  IPartSL=   11    0 NPrtUSL=   12    1 IThBeg=    0 IThEnd=   11 CPU=   -1 GPU=   -1 NThAct=    9.
 IPart=  7 NShTot=          13 NBatch=           7 AvBLen=         1.9
 PrsmSu-ThDecC:  IPartSL=    7    0 NPrtUSL=   12    1 IThBeg=    0 IThEnd=   11 CPU=   -1 GPU=   -1 NThAct=    8.
 IPart=  0 NShTot=          23 NBatch=          12 AvBLen=         1.9
 PrsmSu-ThDecC:  IPartSL=    0    0 NPrtUSL=   12    1 IThBeg=    0 IThEnd=   11 CPU=   -1 GPU=   -1 NThAct=    7.
 IPart=  5 NShTot=          16 NBatch=           8 AvBLen=         2.0
 PrsmSu-ThDecC:  IPartSL=    5    0 NPrtUSL=   12    1 IThBeg=    0 IThEnd=   11 CPU=   -1 GPU=   -1 NThAct=    6.
 IPart=  9 NShTot=          12 NBatch=           6 AvBLen=         2.0
 PrsmSu-ThDecC:  IPartSL=    9    0 NPrtUSL=   12    1 IThBeg=    0 IThEnd=   11 CPU=   -1 GPU=   -1 NThAct=    5.
 IPart=  6 NShTot=          15 NBatch=           8 AvBLen=         1.9
 PrsmSu-ThDecC:  IPartSL=    6    0 NPrtUSL=   12    1 IThBeg=    0 IThEnd=   11 CPU=   -1 GPU=   -1 NThAct=    4.
 IPart=  2 NShTot=          18 NBatch=           9 AvBLen=         2.0
 PrsmSu-ThDecC:  IPartSL=    2    0 NPrtUSL=   12    1 IThBeg=    0 IThEnd=   11 CPU=   -1 GPU=   -1 NThAct=    3.
 IPart=  3 NShTot=          18 NBatch=           9 AvBLen=         2.0
 PrsmSu-ThDecC:  IPartSL=    3    0 NPrtUSL=   12    1 IThBeg=    0 IThEnd=   11 CPU=   -1 GPU=   -1 NThAct=    2.
 IPart= 10 NShTot=          12 NBatch=           6 AvBLen=         2.0
 PrsmSu-ThDecC:  IPartSL=   10    0 NPrtUSL=   12    1 IThBeg=    0 IThEnd=   11 CPU=   -1 GPU=   -1 NThAct=    1.
 PrSmSu:  NxtVal=             13.
 *** Overlap *** 
                1             2             3             4             5 
      1  0.100000D+01
      2  0.248362D+00  0.100000D+01
      3  0.000000D+00  0.000000D+00  0.100000D+01
      4  0.000000D+00  0.000000D+00  0.000000D+00  0.100000D+01
      5  0.000000D+00  0.000000D+00  0.000000D+00  0.000000D+00  0.100000D+01
      6  0.208350D-05  0.424079D-01  0.629110D-01  0.289058D-01  0.123094D-01
      7  0.424079D-01  0.390941D+00  0.363519D+00  0.167026D+00  0.711273D-01
      8 -0.629110D-01 -0.363519D+00 -0.216172D+00 -0.206708D+00 -0.880256D-01
      9 -0.289058D-01 -0.167026D+00 -0.206708D+00  0.138735D+00 -0.404452D-01
     10 -0.123094D-01 -0.711273D-01 -0.880256D-01 -0.404452D-01  0.216488D+00
     11  0.000000D+00  0.300800D-01 -0.439270D-01  0.231902D-01 -0.505504D-02
     12  0.297995D-01  0.325713D+00 -0.337193D+00  0.178013D+00 -0.388035D-01
     13  0.440948D-01  0.291595D+00 -0.205591D+00  0.205323D+00 -0.447566D-01
     14 -0.232788D-01 -0.153941D+00  0.205323D+00  0.749372D-01  0.236282D-01
     15  0.507435D-02  0.335562D-01 -0.447566D-01  0.236282D-01  0.178182D+00
     16  0.623904D-01  0.491209D+00 -0.314170D-01 -0.462700D+00 -0.593398D-01
     17  0.615990D-02  0.106668D+00  0.134948D+00 -0.487019D-02  0.158417D-01
     18  0.554403D-02  0.988618D-01  0.803459D-01  0.958148D-01  0.237315D-01
     19  0.000000D+00  0.174323D-02 -0.210357D-02  0.344131D-02  0.191821D-03
     20  0.174323D-02  0.593387D-01 -0.456482D-01  0.746774D-01  0.416258D-02
     21  0.210357D-02  0.456482D-01 -0.139677D-01  0.633588D-01  0.353167D-02
     22 -0.344131D-02 -0.746774D-01  0.633588D-01 -0.788891D-01 -0.577758D-02
     23 -0.191821D-03 -0.416258D-02  0.353167D-02 -0.577758D-02  0.244396D-01
     24  0.000000D+00  0.178571D-02 -0.409915D-02 -0.167058D-03  0.433628D-03
     25  0.178571D-02  0.601722D-01 -0.881445D-01 -0.359226D-02  0.932437D-02
     26  0.409915D-02  0.881445D-01 -0.117327D+00 -0.580647D-02  0.150718D-01
     27  0.167058D-03  0.359226D-02 -0.580647D-02  0.249118D-01  0.614238D-03
     28 -0.433628D-03 -0.932437D-02  0.150718D-01  0.614238D-03  0.235541D-01
     29  0.122572D-02  0.345558D-01 -0.970604D-02  0.482248D-01 -0.934837D-02
     30  0.813905D-03  0.262728D-01 -0.148648D-01  0.322155D-01  0.163202D-01
     31  0.123650D-03  0.776986D-02 -0.859233D-02  0.935372D-02 -0.586451D-03
     32  0.603950D-03  0.215695D-01 -0.288590D-01 -0.113351D-02  0.151649D-01
     33  0.164701D-02  0.422234D-01 -0.538418D-01 -0.263610D-01 -0.185939D-02
     34  0.132854D-03  0.813062D-02 -0.131633D-01  0.135783D-02 -0.876930D-03
                6             7             8             9            10 
      6  0.100000D+01
      7  0.248362D+00  0.100000D+01
      8  0.000000D+00  0.000000D+00  0.100000D+01
      9  0.000000D+00  0.000000D+00  0.000000D+00  0.100000D+01
     10  0.000000D+00  0.000000D+00  0.000000D+00  0.000000D+00  0.100000D+01
     11  0.000000D+00  0.118943D-02 -0.278514D-02  0.103543D-03 -0.432059D-03
     12  0.547206D-03  0.398678D-01 -0.635924D-01  0.236416D-02 -0.986509D-02
     13  0.141264D-02  0.571937D-01 -0.835637D-01  0.369516D-02 -0.154190D-01
     14 -0.525174D-04 -0.212628D-02  0.369516D-02  0.156931D-01  0.573230D-03
     15  0.219143D-03  0.887245D-02 -0.154190D-01  0.573230D-03  0.134385D-01
     16  0.612074D-02  0.106178D+00 -0.822212D-01 -0.104880D+00 -0.240502D-01
     17  0.630869D-01  0.493949D+00  0.381950D+00 -0.272433D+00  0.398455D-02
     18  0.630274D-01  0.493716D+00  0.643848D-01  0.459133D+00  0.710213D-01
     19  0.000000D+00  0.258239D-03 -0.607160D-03  0.372635D-03 -0.295967D-04
     20  0.258239D-03  0.200012D-01 -0.280511D-01  0.172159D-01 -0.136738D-02
     21  0.607160D-03  0.280511D-01 -0.346154D-01  0.258816D-01 -0.205565D-02
     22 -0.372635D-03 -0.172159D-01  0.258816D-01 -0.832920D-02  0.126163D-02
     23  0.295967D-04  0.136738D-02 -0.205565D-02  0.126163D-02  0.745507D-02
     24  0.000000D+00  0.561201D-05 -0.192607D-04 -0.347581D-05  0.000000D+00
     25  0.561201D-05  0.244370D-02 -0.463978D-02 -0.837301D-03  0.241502D-04
     26  0.192607D-04  0.463978D-02 -0.828338D-02 -0.164379D-02  0.474117D-04
     27  0.347581D-05  0.837301D-03 -0.164379D-02  0.528798D-03  0.855599D-05
     28  0.000000D+00 -0.241502D-04  0.474117D-04  0.855599D-05  0.825193D-03
     29  0.945904D-03  0.290396D-01 -0.267153D-01  0.313999D-01 -0.114026D-01
     30  0.387755D-03  0.161464D-01 -0.187958D-01  0.145673D-01  0.774935D-02
     31  0.847950D-05  0.148148D-02 -0.235756D-02  0.129459D-02 -0.265587D-03
     32  0.779013D-05  0.140702D-02 -0.243636D-02 -0.423097D-03  0.718366D-03
     33  0.103630D-04  0.167396D-02 -0.272417D-02 -0.130569D-02 -0.244181D-03
     34  0.000000D+00  0.280108D-03 -0.560376D-03 -0.267073D-04 -0.567154D-04
               11            12            13            14            15 
     11  0.100000D+01
     12  0.235038D+00  0.100000D+01
     13  0.000000D+00  0.000000D+00  0.100000D+01
     14  0.000000D+00  0.000000D+00  0.000000D+00  0.100000D+01
     15  0.000000D+00  0.000000D+00  0.000000D+00  0.000000D+00  0.100000D+01
     16  0.520637D-02  0.884217D-01  0.592770D-01 -0.889615D-01  0.116724D-03
     17  0.693628D-04  0.400869D-02  0.619962D-02 -0.134839D-02  0.722490D-03
     18  0.627947D-03  0.183143D-01  0.238384D-01  0.899151D-02  0.500431D-02
     19  0.000000D+00  0.247961D-01 -0.133212D-02  0.416116D-01  0.746218D-02
     20  0.257902D-01  0.295334D+00 -0.973168D-02  0.303990D+00  0.545144D-01
     21  0.135103D-02  0.112224D-01  0.161124D+00  0.146252D-01  0.262274D-02
     22 -0.422023D-01 -0.350555D+00  0.146252D-01 -0.295259D+00 -0.819270D-01
     23 -0.756811D-02 -0.628648D-01  0.262274D-02 -0.819270D-01  0.146900D+00
     24  0.000000D+00  0.244267D-01 -0.340505D-01 -0.212811D-01  0.113282D-01
     25  0.254696D-01  0.292972D+00 -0.250710D+00 -0.156691D+00  0.834084D-01
     26  0.345865D-01  0.289049D+00 -0.152810D+00 -0.195466D+00  0.104049D+00
     27  0.216161D-01  0.180652D+00 -0.195466D+00  0.377792D-01  0.650293D-01
     28 -0.115065D-01 -0.961633D-01  0.104049D+00  0.650293D-01  0.125327D+00
     29  0.491670D-02  0.845365D-01  0.344141D-01  0.951887D-01 -0.176887D-01
     30  0.443476D-02  0.779871D-01  0.677849D-02  0.750607D-01  0.589683D-01
     31  0.500831D-02  0.857692D-01 -0.516262D-01  0.903619D-01 -0.670697D-03
     32  0.436397D-02  0.770154D-01 -0.594700D-01 -0.329567D-01  0.658315D-01
     33  0.489609D-02  0.842588D-01 -0.538324D-01 -0.871229D-01  0.295099D-02
     34  0.486551D-02  0.838461D-01 -0.100857D+00 -0.148239D-01 -0.384097D-02
               16            17            18            19            20 
     16  0.100000D+01
     17  0.580651D-01  0.100000D+01
     18  0.148587D-01  0.151615D+00  0.100000D+01
     19  0.105566D-03  0.781641D-05  0.124845D-02  0.100000D+01
     20  0.703237D-02  0.140991D-02  0.349868D-01  0.248362D+00  0.100000D+01
     21  0.409424D-02  0.217199D-02  0.496046D-01  0.000000D+00  0.000000D+00
     22 -0.108067D-01 -0.138990D-02 -0.862367D-02  0.000000D+00  0.000000D+00
     23 -0.870500D-03  0.839834D-04  0.538852D-02  0.000000D+00  0.000000D+00
     24  0.176161D-02  0.000000D+00  0.379741D-05  0.000000D+00  0.158678D-02
     25  0.442093D-01  0.307833D-03  0.910240D-03  0.158678D-02  0.561957D-01
     26  0.569571D-01  0.616376D-03  0.155587D-02  0.172706D-02  0.388420D-01
     27 -0.238867D-01  0.312259D-05  0.708560D-03  0.328011D-02  0.737703D-01
     28 -0.958440D-02 -0.131672D-05  0.601123D-04 -0.210640D-03 -0.473734D-02
     29  0.367814D-02  0.293059D-02  0.720979D-01  0.615713D-01  0.487955D+00
     30  0.310940D-02  0.147466D-02  0.378493D-01  0.601416D-01  0.482194D+00
     31  0.119130D-02  0.942688D-04  0.332130D-02  0.616705D-01  0.488351D+00
     32  0.159955D-01  0.205983D-03  0.640340D-03  0.799620D-03  0.259656D-01
     33  0.780032D-01  0.406171D-03  0.333052D-03  0.103414D-03  0.694179D-02
     34  0.573064D-02  0.285155D-04  0.163897D-03  0.120501D-02  0.341612D-01
               21            22            23            24            25 
     21  0.100000D+01
     22  0.000000D+00  0.100000D+01
     23  0.000000D+00  0.000000D+00  0.100000D+01
     24 -0.172706D-02 -0.328011D-02  0.210640D-03  0.100000D+01
     25 -0.388420D-01 -0.737703D-01  0.473734D-02  0.248362D+00  0.100000D+01
     26 -0.624371D-02 -0.561310D-01  0.360459D-02  0.000000D+00  0.000000D+00
     27 -0.561310D-01 -0.832954D-01  0.684598D-02  0.000000D+00  0.000000D+00
     28  0.360459D-02  0.684598D-02  0.228711D-01  0.000000D+00  0.000000D+00
     29  0.317520D+00  0.217432D+00 -0.262079D+00  0.110565D-03  0.724037D-02
     30  0.823295D-01  0.103010D+00  0.442884D+00  0.580403D-03  0.210128D-01
     31 -0.420983D+00  0.163147D+00 -0.114711D+00  0.162447D-02  0.418283D-01
     32 -0.178271D-01 -0.298143D-01  0.169156D-01  0.601901D-01  0.482391D+00
     33 -0.356994D-02 -0.108592D-01 -0.662208D-03  0.616039D-01  0.488085D+00
     34 -0.373837D-01 -0.319382D-01 -0.617568D-02  0.614931D-01  0.487643D+00
               26            27            28            29            30 
     26  0.100000D+01
     27  0.000000D+00  0.100000D+01
     28  0.000000D+00  0.000000D+00  0.100000D+01
     29  0.668326D-02  0.948554D-02 -0.267299D-02  0.100000D+01
     30  0.146511D-01  0.264306D-01  0.100580D-01  0.168477D+00  0.100000D+01
     31  0.353269D-02  0.586216D-01 -0.938524D-02  0.170719D+00  0.167729D+00
     32 -0.655005D-01 -0.108379D-02  0.457554D+00  0.259473D-02  0.249530D-01
     33  0.373768D-01 -0.441749D+00 -0.142530D+00  0.118585D-02  0.237954D-02
     34 -0.375980D+00  0.186093D+00 -0.201529D+00  0.498890D-02  0.977236D-02
               31            32            33            34 
     31  0.100000D+01
     32  0.190068D-01  0.100000D+01
     33  0.482355D-02  0.168908D+00  0.100000D+01
     34  0.643578D-01  0.168220D+00  0.170954D+00  0.100000D+01
 *** Kinetic Energy *** 
                1             2             3             4             5 
      1  0.158911D+02
      2 -0.858900D-01  0.472250D+00
      3  0.000000D+00  0.000000D+00  0.147773D+01
      4  0.000000D+00  0.000000D+00  0.000000D+00  0.147773D+01
      5  0.000000D+00  0.000000D+00  0.000000D+00  0.000000D+00  0.147773D+01
      6 -0.735789D-04 -0.835746D-02 -0.928414D-02 -0.426579D-02 -0.181656D-02
      7 -0.835746D-02  0.560129D-01  0.149965D+00  0.689047D-01  0.293427D-01
      8  0.928414D-02 -0.149965D+00 -0.253828D+00 -0.157403D+00 -0.670294D-01
      9  0.426579D-02 -0.689047D-01 -0.157403D+00  0.164249D-01 -0.307980D-01
     10  0.181656D-02 -0.293427D-01 -0.670294D-01 -0.307980D-01  0.756319D-01
     11 -0.759567D-05 -0.682774D-02  0.929634D-02 -0.490778D-02  0.106980D-02
     12 -0.120076D-01  0.348651D-01 -0.127423D+00  0.672698D-01 -0.146636D-01
     13 -0.132727D-01  0.111854D+00 -0.212838D+00  0.144973D+00 -0.316013D-01
     14  0.700698D-02 -0.590504D-01  0.144973D+00 -0.147654D-01  0.166832D-01
     15 -0.152739D-02  0.128719D-01 -0.316013D-01  0.166832D-01  0.581328D-01
     16 -0.104974D-01  0.107119D+00 -0.175824D-01 -0.258948D+00 -0.332093D-01
     17 -0.245442D-02 -0.146429D-01  0.167006D-02 -0.602714D-04  0.196050D-03
     18 -0.235063D-02 -0.149024D-01 -0.126161D-03 -0.150450D-03 -0.372637D-04
     19  0.000000D+00 -0.220862D-02  0.180423D-02 -0.295160D-02 -0.164525D-03
     20 -0.220862D-02 -0.173741D-01  0.554638D-02 -0.907351D-02 -0.505765D-03
     21 -0.180423D-02 -0.554638D-02 -0.547670D-02  0.254749D-02  0.141999D-03
     22  0.295160D-02  0.907351D-02  0.254749D-02 -0.808702D-02 -0.232301D-03
     23  0.164525D-03  0.505765D-03  0.141999D-03 -0.232301D-03 -0.393244D-02
     24  0.000000D+00 -0.224458D-02  0.347679D-02  0.141694D-03 -0.367792D-03
     25 -0.224458D-02 -0.174417D-01  0.104368D-01  0.425344D-03 -0.110406D-02
     26 -0.347679D-02 -0.104368D-01 -0.100760D-01 -0.251564D-03  0.652980D-03
     27 -0.141694D-03 -0.425344D-03 -0.251564D-03 -0.391359D-02  0.266117D-04
     28  0.367792D-03  0.110406D-02  0.652980D-03  0.266117D-04 -0.397241D-02
     29 -0.107516D-02 -0.113038D-01  0.180496D-02 -0.896803D-02  0.173845D-02
     30 -0.821392D-03 -0.974570D-02  0.346396D-02 -0.750723D-02 -0.380312D-02
     31 -0.200400D-03 -0.435372D-02  0.371420D-02 -0.404333D-02  0.253505D-03
     32 -0.667855D-03 -0.867285D-02  0.769075D-02  0.302073D-03 -0.404135D-02
     33 -0.128912D-02 -0.124387D-01  0.814351D-02  0.398707D-02  0.281230D-03
     34 -0.212219D-03 -0.449895D-02  0.559651D-02 -0.577294D-03  0.372834D-03
                6             7             8             9            10 
      6  0.158911D+02
      7 -0.858900D-01  0.472250D+00
      8  0.000000D+00  0.000000D+00  0.147773D+01
      9  0.000000D+00  0.000000D+00  0.000000D+00  0.147773D+01
     10  0.000000D+00  0.000000D+00  0.000000D+00  0.000000D+00  0.147773D+01
     11  0.000000D+00 -0.160543D-02  0.258922D-02 -0.962590D-04  0.401666D-03
     12 -0.126459D-02 -0.166796D-01  0.152198D-01 -0.565824D-03  0.236105D-02
     13 -0.251482D-02 -0.128001D-01  0.112107D-02 -0.201783D-03  0.841994D-03
     14  0.934929D-04  0.475868D-03 -0.201783D-03 -0.429910D-02 -0.313027D-04
     15 -0.390124D-03 -0.198568D-02  0.841994D-03 -0.313027D-04 -0.417598D-02
     16 -0.244799D-02 -0.146627D-01 -0.947441D-03 -0.120854D-02 -0.277132D-03
     17 -0.103241D-01  0.108680D+00  0.215408D+00 -0.153644D+00  0.224716D-02
     18 -0.103392D-01  0.108547D+00  0.362873D-01  0.258768D+00  0.400277D-01
     19  0.000000D+00 -0.534276D-03  0.100051D-02 -0.614050D-03  0.487710D-04
     20 -0.534276D-03 -0.103194D-01  0.993840D-02 -0.609955D-02  0.484458D-03
     21 -0.100051D-02 -0.993840D-02  0.548057D-02 -0.517235D-02  0.410815D-03
     22  0.614050D-03  0.609955D-02 -0.517235D-02  0.227369D-03 -0.252132D-03
     23 -0.487710D-04 -0.484458D-03  0.410815D-03 -0.252132D-03 -0.292706D-02
     24  0.000000D+00 -0.206536D-04  0.627942D-04  0.113319D-04  0.000000D+00
     25 -0.206536D-04 -0.227532D-02  0.353706D-02  0.638303D-03 -0.184105D-04
     26 -0.627942D-04 -0.353706D-02  0.493993D-02  0.100914D-02 -0.291066D-04
     27 -0.113319D-04 -0.638303D-03  0.100914D-02 -0.469966D-03 -0.525262D-05
     28  0.000000D+00  0.184105D-04 -0.291066D-04 -0.525262D-05 -0.651926D-03
     29 -0.908667D-03 -0.103094D-01  0.576789D-02 -0.677930D-02  0.246183D-02
     30 -0.484528D-03 -0.722284D-02  0.591725D-02 -0.458604D-02 -0.243963D-02
     31 -0.211145D-04 -0.121764D-02  0.161614D-02 -0.887464D-03  0.182064D-03
     32 -0.196121D-04 -0.116829D-02  0.168942D-02  0.293384D-03 -0.498129D-03
     33 -0.251308D-04 -0.134259D-02  0.181658D-02  0.870682D-03  0.162829D-03
     34 -0.180938D-05 -0.309096D-03  0.531942D-03  0.253522D-04  0.538377D-04
               11            12            13            14            15 
     11  0.219908D+02
     12 -0.128416D+00  0.606994D+00
     13  0.000000D+00  0.000000D+00  0.189936D+01
     14  0.000000D+00  0.000000D+00  0.000000D+00  0.189936D+01
     15  0.000000D+00  0.000000D+00  0.000000D+00  0.000000D+00  0.189936D+01
     16 -0.198926D-02 -0.167636D-01 -0.189321D-02  0.284129D-02 -0.372796D-05
     17 -0.121555D-03 -0.285166D-02 -0.349661D-02  0.760500D-03 -0.407487D-03
     18 -0.646265D-03 -0.831870D-02 -0.734213D-02 -0.276934D-02 -0.154130D-02
     19 -0.224840D-05 -0.114478D-01  0.422572D-03 -0.132000D-01 -0.236714D-02
     20 -0.667457D-02  0.230482D-01 -0.331819D-02  0.103651D+00  0.185877D-01
     21 -0.323700D-03  0.375793D-02  0.469193D-01  0.925148D-02  0.165906D-02
     22  0.101115D-01 -0.117387D+00  0.925148D-02 -0.241775D+00 -0.518245D-01
     23  0.181329D-02 -0.210510D-01  0.165906D-02 -0.518245D-01  0.379218D-01
     24 -0.203306D-05 -0.113991D-01  0.108391D-01  0.677427D-02 -0.360603D-02
     25 -0.665807D-02  0.221805D-01 -0.846463D-01 -0.529028D-01  0.281608D-01
     26 -0.833797D-02  0.958107D-01 -0.149898D+00 -0.122544D+00  0.652318D-01
     27 -0.521112D-02  0.598804D-01 -0.122544D+00 -0.304116D-01  0.407690D-01
     28  0.277395D-02 -0.318751D-01  0.652318D-01  0.407690D-01  0.244750D-01
     29 -0.194558D-02 -0.167104D-01 -0.139341D-02 -0.385413D-02  0.716203D-03
     30 -0.186945D-02 -0.165353D-01 -0.376812D-03 -0.417258D-02 -0.327801D-02
     31 -0.195952D-02 -0.167313D-01  0.194868D-02 -0.341081D-02  0.253162D-04
     32 -0.185779D-02 -0.164999D-01  0.344403D-02  0.190859D-02 -0.381244D-02
     33 -0.194242D-02 -0.167051D-01  0.221313D-02  0.358175D-02 -0.121320D-03
     34 -0.193772D-02 -0.166970D-01  0.423988D-02  0.623179D-03  0.161469D-03
               16            17            18            19            20 
     16  0.760032D+00
     17 -0.111073D-01  0.760032D+00
     18 -0.583303D-02 -0.750285D-02  0.760032D+00
     19 -0.176510D-03 -0.196697D-04 -0.108773D-02  0.158911D+02
     20 -0.404873D-02 -0.117021D-02 -0.113748D-01 -0.858900D-01  0.472250D+00
     21 -0.183351D-02 -0.150542D-02 -0.911838D-02  0.000000D+00  0.000000D+00
     22  0.483952D-02  0.963349D-03  0.158521D-02  0.000000D+00  0.000000D+00
     23  0.389833D-03 -0.582094D-04 -0.990525D-03  0.000000D+00  0.000000D+00
     24 -0.134119D-02 -0.208651D-05 -0.104443D-04  0.000000D+00 -0.207249D-02
     25 -0.126912D-01 -0.334625D-03 -0.821237D-03 -0.207249D-02 -0.170955D-01
     26 -0.815991D-02 -0.575564D-03 -0.118361D-02 -0.154592D-02 -0.518772D-02
     27  0.342212D-02 -0.291583D-05 -0.539026D-03 -0.293607D-02 -0.985272D-02
     28  0.137310D-02  0.122954D-05 -0.457295D-04  0.188547D-03  0.632717D-03
     29 -0.212591D-02 -0.177905D-02 -0.114504D-01 -0.106915D-01  0.105278D+00
     30 -0.186404D-02 -0.102539D-02 -0.968600D-02 -0.110043D-01  0.102053D+00
     31 -0.861491D-03 -0.101832D-03 -0.196306D-02 -0.106686D-01  0.105502D+00
     32 -0.611322D-02 -0.198711D-03 -0.515970D-03 -0.811555D-03 -0.968020D-02
     33 -0.114741D-01 -0.352666D-03 -0.298434D-03 -0.173603D-03 -0.401047D-02
     34 -0.298463D-02 -0.360654D-04 -0.163568D-03 -0.106359D-02 -0.112379D-01
               21            22            23            24            25 
     21  0.147773D+01
     22  0.000000D+00  0.147773D+01
     23  0.000000D+00  0.000000D+00  0.147773D+01
     24  0.154592D-02  0.293607D-02 -0.188547D-03  0.158911D+02
     25  0.518772D-02  0.985272D-02 -0.632717D-03 -0.858900D-01  0.472250D+00
     26 -0.479840D-02 -0.157504D-02  0.101145D-03  0.000000D+00  0.000000D+00
     27 -0.157504D-02 -0.696048D-02  0.192099D-03  0.000000D+00  0.000000D+00
     28  0.101145D-03  0.192099D-03 -0.398144D-02  0.000000D+00  0.000000D+00
     29  0.176072D+00  0.120571D+00 -0.145329D+00 -0.183207D-03 -0.413589D-02
     30  0.449082D-01  0.561889D-01  0.241580D+00 -0.649300D-03 -0.853531D-02
     31 -0.233707D+00  0.905704D-01 -0.636813D-01 -0.127859D-02 -0.123865D-01
     32  0.419004D-02  0.700749D-02 -0.397580D-02 -0.109942D-01  0.102163D+00
     33  0.160591D-02  0.488492D-02  0.297889D-03 -0.106840D-01  0.105352D+00
     34  0.702613D-02  0.600266D-02  0.116070D-02 -0.107094D-01  0.105103D+00
               26            27            28            29            30 
     26  0.147773D+01
     27  0.000000D+00  0.147773D+01
     28  0.000000D+00  0.000000D+00  0.147773D+01
     29 -0.296262D-02 -0.420484D-02  0.118491D-02  0.760032D+00
     30 -0.396895D-02 -0.716000D-02 -0.272470D-02 -0.566258D-02  0.760032D+00
     31 -0.540083D-03 -0.896216D-02  0.143483D-02 -0.539307D-02 -0.575125D-02
     32 -0.357488D-01 -0.591512D-03  0.249723D+00 -0.161555D-02 -0.793560D-02
     33  0.207339D-01 -0.245050D+00 -0.790654D-01 -0.858261D-03 -0.150795D-02
     34 -0.208305D+00  0.103101D+00 -0.111653D+00 -0.268796D-02 -0.439965D-02
               31            32            33            34 
     31  0.760032D+00
     32 -0.679690D-02  0.760032D+00
     33 -0.261987D-02 -0.561129D-02  0.760032D+00
     34 -0.113151D-01 -0.569316D-02 -0.536451D-02  0.760032D+00
 Entering OneElI...
 OneElI was handed  4294965918 working-precision words.
 Calculate potential energy integrals
    NBasis =  34  MinDer = 0  MaxDer = 0
 Requested accuracy = 0.1000D-12
 ShPair: Thresh= 1.00D-13 NBox=     0 BxSize= 0.00D+00 RnKept= 1.02D+01
         NSMCal=                  190 NSMKep=                 184
 PrmmSu-InSpLW:  IPartL=    0 NPrtUS=   12 NPrtUL=    1 DoSpLW=F IThBeg=    0 IThEnd=   11 NThAct=   12.
 PrSmSu:  IncTry=   512 NBBP=           2576 NTPThr=   100 NPartT=   12 Incr=           2 LDynOK=F GPUOK=F.
 PrsmSu:  NPrtUS=  12 ThrOK=T IAlg=1 LenDen=           0 ISkipM=0 DoSpLW=F IThBeg=    0 IThEnd=   11.
 Prism:   IPart=     0 DynPar=F LinDyn=F Incr=           2.
 PRISM was handed   357899368 working-precision words and   184 shell-pairs
 PRISM was handed   357899368 working-precision words and   184 shell-pairs
 PRISM was handed   357899368 working-precision words and   184 shell-pairs
 PRISM was handed   357899368 working-precision words and   184 shell-pairs
 PRISM was handed   357899368 working-precision words and   184 shell-pairs
 PRISM was handed   357899368 working-precision words and   184 shell-pairs
 PRISM was handed   357899368 working-precision words and   184 shell-pairs
 PRISM was handed   357899368 working-precision words and   184 shell-pairs
 PRISM was handed   357899368 working-precision words and   184 shell-pairs
 PRISM was handed   357899368 working-precision words and   184 shell-pairs
 PRISM was handed   357899368 working-precision words and   184 shell-pairs
 PRISM was handed   357899368 working-precision words and   184 shell-pairs
 IPart=  9 NShTot=         154 NBatch=          11 AvBLen=        14.0
 PrsmSu-ThDecC:  IPartSL=    9    0 NPrtUSL=   12    1 IThBeg=    0 IThEnd=   11 CPU=   -1 GPU=   -1 NThAct=   12.
 IPart=  2 NShTot=         280 NBatch=          20 AvBLen=        14.0
 PrsmSu-ThDecC:  IPartSL=    2    0 NPrtUSL=   12    1 IThBeg=    0 IThEnd=   11 CPU=   -1 GPU=   -1 NThAct=   11.
 IPart=  0 NShTot=         322 NBatch=          23 AvBLen=        14.0
 PrsmSu-ThDecC:  IPartSL=    0    0 NPrtUSL=   12    1 IThBeg=    0 IThEnd=   11 CPU=   -1 GPU=   -1 NThAct=   10.
 IPart=  3 NShTot=         224 NBatch=          16 AvBLen=        14.0
 PrsmSu-ThDecC:  IPartSL=    3    0 NPrtUSL=   12    1 IThBeg=    0 IThEnd=   11 CPU=   -1 GPU=   -1 NThAct=    9.
 IPart=  4 NShTot=         224 NBatch=          16 AvBLen=        14.0
 PrsmSu-ThDecC:  IPartSL=    4    0 NPrtUSL=   12    1 IThBeg=    0 IThEnd=   11 CPU=   -1 GPU=   -1 NThAct=    8.
 IPart=  1 NShTot=         308 NBatch=          22 AvBLen=        14.0
 PrsmSu-ThDecC:  IPartSL=    1    0 NPrtUSL=   12    1 IThBeg=    0 IThEnd=   11 CPU=   -1 GPU=   -1 NThAct=    7.
 IPart= 11 NShTot=         140 NBatch=          10 AvBLen=        14.0
 PrsmSu-ThDecC:  IPartSL=   11    0 NPrtUSL=   12    1 IThBeg=    0 IThEnd=   11 CPU=   -1 GPU=   -1 NThAct=    6.
 IPart=  5 NShTot=         224 NBatch=          16 AvBLen=        14.0
 PrsmSu-ThDecC:  IPartSL=    5    0 NPrtUSL=   12    1 IThBeg=    0 IThEnd=   11 CPU=   -1 GPU=   -1 NThAct=    5.
 IPart=  7 NShTot=         182 NBatch=          13 AvBLen=        14.0
 PrsmSu-ThDecC:  IPartSL=    7    0 NPrtUSL=   12    1 IThBeg=    0 IThEnd=   11 CPU=   -1 GPU=   -1 NThAct=    4.
 IPart=  8 NShTot=         154 NBatch=          11 AvBLen=        14.0
 PrsmSu-ThDecC:  IPartSL=    8    0 NPrtUSL=   12    1 IThBeg=    0 IThEnd=   11 CPU=   -1 GPU=   -1 NThAct=    3.
 IPart= 10 NShTot=         154 NBatch=          11 AvBLen=        14.0
 PrsmSu-ThDecC:  IPartSL=   10    0 NPrtUSL=   12    1 IThBeg=    0 IThEnd=   11 CPU=   -1 GPU=   -1 NThAct=    2.
 IPart=  6 NShTot=         210 NBatch=          15 AvBLen=        14.0
 PrsmSu-ThDecC:  IPartSL=    6    0 NPrtUSL=   12    1 IThBeg=    0 IThEnd=   11 CPU=   -1 GPU=   -1 NThAct=    1.
 PrSmSu:  NxtVal=             25.
 ***** Potential Energy ***** 
                1             2             3             4             5 
      1  0.433663D+02
      2  0.660470D+01  0.148521D+02
      3 -0.392314D-01 -0.458834D+00  0.153051D+02
      4  0.690807D-01  0.800343D+00 -0.604956D-01  0.147549D+02
      5  0.789339D-02  0.923765D-01  0.112786D+00  0.337238D-01  0.143586D+02
      6  0.326823D-04  0.107360D+01  0.159390D+01  0.733714D+00  0.312106D+00
      7  0.114127D+01  0.545685D+01  0.495277D+01  0.249988D+01  0.100941D+01
      8 -0.169607D+01 -0.541747D+01 -0.327153D+01 -0.313117D+01 -0.126162D+01
      9 -0.776028D+00 -0.230068D+01 -0.274968D+01  0.162566D+01 -0.548172D+00
     10 -0.331273D+00 -0.102617D+01 -0.119311D+01 -0.591335D+00  0.268227D+01
     11  0.257645D-05  0.101481D+01 -0.148205D+01  0.782668D+00 -0.169824D+00
     12  0.801699D+00  0.513301D+01 -0.546101D+01  0.295048D+01 -0.570198D+00
     13  0.118993D+01  0.458616D+01 -0.340880D+01  0.328233D+01 -0.652644D+00
     14 -0.627013D+00 -0.236318D+01  0.316035D+01  0.951725D+00  0.340421D+00
     15  0.137310D+00  0.604543D+00 -0.781170D+00  0.422310D+00  0.250142D+01
     16  0.167233D+01  0.629045D+01 -0.563910D+00 -0.539232D+01 -0.690105D+00
     17  0.164332D+00  0.130946D+01  0.159186D+01  0.395624D-01  0.203813D+00
     18  0.148487D+00  0.129675D+01  0.102676D+01  0.122045D+01  0.304681D+00
     19  0.000000D+00  0.441034D-01 -0.539116D-01  0.880763D-01  0.490402D-02
     20  0.457635D-01  0.866397D+00 -0.711796D+00  0.106690D+01  0.518782D-01
     21  0.558609D-01  0.631197D+00 -0.219740D+00  0.858632D+00  0.464559D-01
     22 -0.914115D-01 -0.113314D+01  0.100962D+01 -0.118641D+01 -0.719036D-01
     23 -0.509344D-02 -0.709345D-01  0.668112D-01 -0.914355D-01  0.312583D+00
     24  0.000000D+00  0.446894D-01 -0.103840D+00 -0.415588D-02  0.109684D-01
     25  0.466962D-01  0.855017D+00 -0.126049D+01  0.156189D-01  0.115860D+00
     26  0.108499D+00  0.126613D+01 -0.170314D+01  0.148938D-01  0.188367D+00
     27  0.452664D-02  0.116702D+00 -0.177228D+00  0.337994D+00  0.105777D-01
     28 -0.114839D-01 -0.151274D+00  0.239309D+00 -0.766989D-02  0.292544D+00
     29  0.324993D-01  0.456543D+00 -0.154835D+00  0.617086D+00 -0.107223D+00
     30  0.215041D-01  0.350367D+00 -0.213505D+00  0.420712D+00  0.193426D+00
     31  0.321344D-02  0.113810D+00 -0.128726D+00  0.133921D+00 -0.740485D-02
     32  0.158546D-01  0.281010D+00 -0.379140D+00  0.427035D-02  0.175069D+00
     33  0.435431D-01  0.527466D+00 -0.675410D+00 -0.272758D+00 -0.193158D-01
     34  0.344368D-02  0.115979D+00 -0.186647D+00  0.263155D-01 -0.102571D-01
                6             7             8             9            10 
      6  0.415825D+02
      7  0.616168D+01  0.130719D+02
      8 -0.976394D-01 -0.113161D+01  0.133736D+02
      9 -0.142449D-01 -0.161500D+00  0.113938D+00  0.129885D+02
     10 -0.138110D-01 -0.158949D+00  0.995184D-01  0.538293D-01  0.127228D+02
     11  0.000000D+00  0.390450D-01 -0.923714D-01  0.343291D-02 -0.143078D-01
     12  0.130164D-01  0.589251D+00 -0.959647D+00  0.134023D-01 -0.147380D+00
     13  0.341307D-01  0.835769D+00 -0.124803D+01  0.182550D-01 -0.224645D+00
     14 -0.128250D-02 -0.536182D-01  0.867289D-01  0.219461D+00  0.149227D-01
     15  0.529528D-02  0.132650D+00 -0.231574D+00  0.455796D-02  0.168715D+00
     16  0.153683D+00  0.134029D+01 -0.114364D+01 -0.123806D+01 -0.305222D+00
     17  0.157846D+01  0.548846D+01  0.371280D+01 -0.292653D+01 -0.201905D-02
     18  0.158162D+01  0.573814D+01  0.324870D+00  0.505896D+01  0.736494D+00
     19  0.000000D+00  0.635164D-02 -0.151328D-01  0.926732D-02 -0.739915D-03
     20  0.616112D-02  0.253991D+00 -0.369861D+00  0.203260D+00 -0.211209D-01
     21  0.146651D-01  0.346064D+00 -0.442575D+00  0.298053D+00 -0.292204D-01
     22 -0.901805D-02 -0.236293D+00  0.364478D+00 -0.107158D+00  0.216701D-01
     23  0.712721D-03  0.137048D-01 -0.204736D-01  0.130640D-01  0.855233D-01
     24  0.000000D+00  0.131023D-03 -0.455026D-03 -0.819018D-04  0.225032D-05
     25  0.128377D-03  0.356146D-01 -0.680410D-01 -0.113493D-01 -0.123591D-02
     26  0.445829D-03  0.674893D-01 -0.121569D+00 -0.227695D-01 -0.227020D-02
     27  0.804424D-04  0.133165D-01 -0.266402D-01  0.640078D-02 -0.529165D-03
     28 -0.242590D-05 -0.195035D-02  0.383076D-02  0.551677D-03  0.103553D-01
     29  0.232886D-01  0.333699D+00 -0.326290D+00  0.335434D+00 -0.123827D+00
     30  0.946730D-02  0.187329D+00 -0.227079D+00  0.157416D+00  0.782230D-01
     31  0.199894D-03  0.192078D-01 -0.317444D-01  0.156114D-01 -0.352150D-02
     32  0.183934D-03  0.181820D-01 -0.318325D-01 -0.519430D-02  0.738780D-02
     33  0.245663D-03  0.227693D-01 -0.374417D-01 -0.162424D-01 -0.372732D-02
     34  0.123334D-04  0.414111D-02 -0.835440D-02 -0.367956D-03 -0.883179D-03
               11            12            13            14            15 
     11  0.562405D+02
     12  0.779614D+01  0.169060D+02
     13  0.186279D-01  0.233977D+00  0.170623D+02
     14 -0.183873D-03 -0.716456D-03 -0.223296D-01  0.169905D+02
     15  0.327309D-01  0.413591D+00 -0.361789D-01 -0.459851D-02  0.164886D+02
     16  0.174893D+00  0.127882D+01  0.872013D+00 -0.120248D+01  0.357825D-01
     17  0.225472D-02  0.582935D-01  0.890906D-01 -0.204960D-01  0.110247D-01
     18  0.207749D-01  0.255332D+00  0.322674D+00  0.111823D+00  0.691717D-01
     19  0.000000D+00  0.643106D+00 -0.343876D-01  0.108353D+01  0.194564D+00
     20  0.868733D+00  0.452683D+01 -0.936413D-01  0.455561D+01  0.888939D+00
     21  0.458989D-01  0.222445D+00  0.227467D+01  0.262152D+00  0.474754D-01
     22 -0.142205D+01 -0.558519D+01  0.157607D+00 -0.463888D+01 -0.132747D+01
     23 -0.254374D+00 -0.948740D+00  0.243764D-01 -0.119155D+01  0.199018D+01
     24  0.000000D+00  0.626943D+00 -0.877517D+00 -0.548510D+00  0.292206D+00
     25  0.857391D+00  0.443704D+01 -0.367642D+01 -0.231893D+01  0.130394D+01
     26  0.116493D+01  0.457391D+01 -0.242959D+01 -0.293055D+01  0.162651D+01
     27  0.727848D+00  0.284368D+01 -0.289762D+01  0.394565D+00  0.101473D+01
     28 -0.386815D+00 -0.146345D+01  0.150060D+01  0.946998D+00  0.164157D+01
     29  0.165013D+00  0.120217D+01  0.460037D+00  0.130485D+01 -0.185078D+00
     30  0.148892D+00  0.112032D+01  0.995856D-01  0.105034D+01  0.784150D+00
     31  0.168022D+00  0.120401D+01 -0.648843D+00  0.122746D+01  0.312573D-01
     32  0.146421D+00  0.108977D+01 -0.813960D+00 -0.458974D+00  0.866493D+00
     33  0.164239D+00  0.118008D+01 -0.733805D+00 -0.114519D+01  0.831656D-01
     34  0.163118D+00  0.116337D+01 -0.132278D+01 -0.224731D+00 -0.630820D-04
               16            17            18            19            20 
     16  0.109112D+02
     17  0.604188D+00  0.939038D+01
     18  0.191000D+00  0.158136D+01  0.102139D+02
     19  0.264162D-02  0.189781D-03  0.317338D-01  0.423714D+02
     20  0.104116D+00  0.178209D-01  0.402584D+00  0.635762D+01  0.138567D+02
     21  0.580603D-01  0.267792D-01  0.547880D+00  0.154474D-01  0.180921D+00
     22 -0.162262D+00 -0.188865D-01 -0.131106D+00 -0.991995D-01 -0.115940D+01
     23 -0.134425D-01  0.830453D-03  0.545123D-01 -0.796484D-02 -0.911485D-01
     24  0.445964D-01  0.147322D-04  0.911466D-04  0.000000D+00  0.396341D-01
     25  0.544508D+00  0.421170D-02  0.131381D-01  0.400335D-01  0.781957D+00
     26  0.711046D+00  0.843217D-02  0.222859D-01  0.441799D-01  0.600640D+00
     27 -0.236416D+00  0.324833D-03  0.102001D-01  0.837296D-01  0.100597D+01
     28 -0.121289D+00 -0.199399D-03  0.830652D-04 -0.539925D-02 -0.871976D-01
     29  0.496306D-01  0.329818D-01  0.718264D+00  0.159271D+01  0.597319D+01
     30  0.418950D-01  0.167978D-01  0.382761D+00  0.155562D+01  0.590122D+01
     31  0.171778D-01  0.120836D-02  0.388962D-01  0.159364D+01  0.588879D+01
     32  0.181436D+00  0.245864D-02  0.786498D-02  0.203104D-01  0.325344D+00
     33  0.799494D+00  0.480760D-02  0.465758D-02  0.258415D-02  0.990113D-01
     34  0.705596D-01  0.400011D-03  0.234096D-02  0.306916D-01  0.417689D+00
               21            22            23            24            25 
     21  0.137093D+02
     22 -0.329460D-01  0.141164D+02
     23 -0.423230D-02  0.602188D-01  0.136128D+02
     24 -0.436034D-01 -0.829731D-01  0.530563D-02  0.421033D+02
     25 -0.488493D+00 -0.106353D+01  0.456744D-01  0.629103D+01  0.135891D+02
     26 -0.104282D+00 -0.880576D+00  0.331528D-01  0.853084D-01  0.997678D+00
     27 -0.695914D+00 -0.118740D+01  0.694395D-01  0.503729D-01  0.589567D+00
     28  0.523249D-01  0.128374D+00  0.282055D+00 -0.180049D-01 -0.208762D+00
     29  0.378361D+01  0.214149D+01 -0.306562D+01  0.273578D-02  0.102574D+00
     30  0.103053D+01  0.815611D+00  0.511218D+01  0.145569D-01  0.267401D+00
     31 -0.478177D+01  0.148833D+01 -0.133600D+01  0.410767D-01  0.506390D+00
     32 -0.204120D+00 -0.388652D+00  0.185662D+00  0.154044D+01  0.576019D+01
     33 -0.453839D-01 -0.157094D+00 -0.968741D-02  0.157660D+01  0.581924D+01
     34 -0.418105D+00 -0.415717D+00 -0.714535D-01  0.157311D+01  0.577672D+01
               26            27            28            29            30 
     26  0.137340D+02
     27  0.193761D+00  0.135299D+02
     28 -0.937047D-01 -0.550134D-01  0.133717D+02
     29  0.100962D+00  0.131371D+00 -0.365448D-01  0.106300D+02
     30  0.203440D+00  0.330365D+00  0.105195D+00  0.190706D+01  0.105915D+02
     31  0.957324D-01  0.690476D+00 -0.115022D+00  0.189073D+01  0.186587D+01
     32 -0.416358D+00  0.181931D+00  0.511468D+01  0.343448D-01  0.263195D+00
     33  0.764555D+00 -0.481700D+01 -0.167562D+01  0.166166D-01  0.314136D-01
     34 -0.390965D+01  0.229560D+01 -0.232554D+01  0.604597D-01  0.113095D+00
               31            32            33            34 
     31  0.103362D+02
     32  0.208911D+00  0.102894D+02
     33  0.597912D-01  0.184931D+01  0.102808D+02
     34  0.643788D+00  0.183294D+01  0.185145D+01  0.101533D+02
 ****** Core Hamiltonian ****** 
                1             2             3             4             5 
      1 -0.274751D+02
      2 -0.669059D+01 -0.143798D+02
      3  0.392314D-01  0.458834D+00 -0.138274D+02
      4 -0.690807D-01 -0.800343D+00  0.604956D-01 -0.132772D+02
      5 -0.789339D-02 -0.923765D-01 -0.112786D+00 -0.337238D-01 -0.128809D+02
      6 -0.106261D-03 -0.108195D+01 -0.160318D+01 -0.737980D+00 -0.313922D+00
      7 -0.114963D+01 -0.540084D+01 -0.480280D+01 -0.243098D+01 -0.980062D+00
      8  0.170535D+01  0.526750D+01  0.301770D+01  0.297377D+01  0.119459D+01
      9  0.780294D+00  0.223177D+01  0.259228D+01 -0.160923D+01  0.517374D+00
     10  0.333090D+00  0.996822D+00  0.112608D+01  0.560537D+00 -0.260664D+01
     11 -0.101721D-04 -0.102164D+01  0.149134D+01 -0.787576D+00  0.170894D+00
     12 -0.813706D+00 -0.509814D+01  0.533359D+01 -0.288321D+01  0.555534D+00
     13 -0.120320D+01 -0.447431D+01  0.319596D+01 -0.313736D+01  0.621043D+00
     14  0.634020D+00  0.230413D+01 -0.301538D+01 -0.966491D+00 -0.323737D+00
     15 -0.138838D+00 -0.591671D+00  0.749569D+00 -0.405627D+00 -0.244329D+01
     16 -0.168283D+01 -0.618333D+01  0.546327D+00  0.513337D+01  0.656895D+00
     17 -0.166787D+00 -0.132411D+01 -0.159019D+01 -0.396227D-01 -0.203617D+00
     18 -0.150838D+00 -0.131166D+01 -0.102689D+01 -0.122060D+01 -0.304718D+00
     19  0.000000D+00 -0.463120D-01  0.557158D-01 -0.910279D-01 -0.506855D-02
     20 -0.479721D-01 -0.883771D+00  0.717342D+00 -0.107597D+01 -0.523840D-01
     21 -0.576651D-01 -0.636743D+00  0.214264D+00 -0.856084D+00 -0.463139D-01
     22  0.943631D-01  0.114221D+01 -0.100707D+01  0.117833D+01  0.716713D-01
     23  0.525797D-02  0.714402D-01 -0.666692D-01  0.912032D-01 -0.316515D+00
     24  0.000000D+00 -0.469340D-01  0.107317D+00  0.429758D-02 -0.113362D-01
     25 -0.489408D-01 -0.872459D+00  0.127092D+01 -0.151936D-01 -0.116964D+00
     26 -0.111976D+00 -0.127657D+01  0.169306D+01 -0.151454D-01 -0.187714D+00
     27 -0.466833D-02 -0.117128D+00  0.176977D+00 -0.341908D+00 -0.105511D-01
     28  0.118517D-01  0.152378D+00 -0.238656D+00  0.769650D-02 -0.296517D+00
     29 -0.335745D-01 -0.467846D+00  0.156640D+00 -0.626054D+00  0.108961D+00
     30 -0.223255D-01 -0.360113D+00  0.216969D+00 -0.428220D+00 -0.197229D+00
     31 -0.341384D-02 -0.118164D+00  0.132440D+00 -0.137964D+00  0.765835D-02
     32 -0.165225D-01 -0.289683D+00  0.386830D+00 -0.396828D-02 -0.179111D+00
     33 -0.448322D-01 -0.539905D+00  0.683553D+00  0.276745D+00  0.195970D-01
     34 -0.365590D-02 -0.120477D+00  0.192244D+00 -0.268928D-01  0.106300D-01
                6             7             8             9            10 
      6 -0.256914D+02
      7 -0.624757D+01 -0.125997D+02
      8  0.976394D-01  0.113161D+01 -0.118958D+02
      9  0.142449D-01  0.161500D+00 -0.113938D+00 -0.115108D+02
     10  0.138110D-01  0.158949D+00 -0.995184D-01 -0.538293D-01 -0.112451D+02
     11  0.000000D+00 -0.406504D-01  0.949606D-01 -0.352916D-02  0.147095D-01
     12 -0.142810D-01 -0.605930D+00  0.974867D+00 -0.139681D-01  0.149741D+00
     13 -0.366455D-01 -0.848569D+00  0.124915D+01 -0.184568D-01  0.225487D+00
     14  0.137600D-02  0.540941D-01 -0.869306D-01 -0.223760D+00 -0.149540D-01
     15 -0.568541D-02 -0.134636D+00  0.232416D+00 -0.458926D-02 -0.172891D+00
     16 -0.156131D+00 -0.135496D+01  0.114269D+01  0.123685D+01  0.304944D+00
     17 -0.158879D+01 -0.537978D+01 -0.349739D+01  0.277289D+01  0.426622D-02
     18 -0.159196D+01 -0.562960D+01 -0.288583D+00 -0.480019D+01 -0.696466D+00
     19  0.000000D+00 -0.688591D-02  0.161333D-01 -0.988137D-02  0.788686D-03
     20 -0.669540D-02 -0.264310D+00  0.379800D+00 -0.209359D+00  0.216054D-01
     21 -0.156656D-01 -0.356002D+00  0.448055D+00 -0.303226D+00  0.296312D-01
     22  0.963210D-02  0.242392D+00 -0.369650D+00  0.107386D+00 -0.219222D-01
     23 -0.761492D-03 -0.141892D-01  0.208845D-01 -0.133161D-01 -0.884504D-01
     24  0.000000D+00 -0.151676D-03  0.517820D-03  0.932338D-04 -0.257717D-05
     25 -0.149031D-03 -0.378900D-01  0.715781D-01  0.119876D-01  0.121750D-02
     26 -0.508623D-03 -0.710264D-01  0.126509D+00  0.237786D-01  0.224110D-02
     27 -0.917744D-04 -0.139548D-01  0.276493D-01 -0.687074D-02  0.523913D-03
     28  0.275274D-05  0.196876D-02 -0.385987D-02 -0.556929D-03 -0.110073D-01
     29 -0.241972D-01 -0.344008D+00  0.332058D+00 -0.342213D+00  0.126289D+00
     30 -0.995183D-02 -0.194552D+00  0.232997D+00 -0.162002D+00 -0.806626D-01
     31 -0.221009D-03 -0.204255D-01  0.333606D-01 -0.164989D-01  0.370357D-02
     32 -0.203546D-03 -0.193503D-01  0.335219D-01  0.548769D-02 -0.788593D-02
     33 -0.270793D-03 -0.241118D-01  0.392583D-01  0.171130D-01  0.389015D-02
     34 -0.141428D-04 -0.445021D-02  0.888634D-02  0.393309D-03  0.937017D-03
               11            12            13            14            15 
     11 -0.342498D+02
     12 -0.792456D+01 -0.162990D+02
     13 -0.186279D-01 -0.233977D+00 -0.151630D+02
     14  0.183873D-03  0.716456D-03  0.223296D-01 -0.150911D+02
     15 -0.327309D-01 -0.413591D+00  0.361789D-01  0.459851D-02 -0.145892D+02
     16 -0.176882D+00 -0.129558D+01 -0.873907D+00  0.120532D+01 -0.357863D-01
     17 -0.237627D-02 -0.611452D-01 -0.925872D-01  0.212565D-01 -0.114322D-01
     18 -0.214212D-01 -0.263650D+00 -0.330016D+00 -0.114592D+00 -0.707130D-01
     19 -0.291334D-05 -0.654554D+00  0.348102D-01 -0.109673D+01 -0.196931D+00
     20 -0.875408D+00 -0.450379D+01  0.903231D-01 -0.445196D+01 -0.870351D+00
     21 -0.462226D-01 -0.218687D+00 -0.222775D+01 -0.252901D+00 -0.458164D-01
     22  0.143216D+01  0.546781D+01 -0.148356D+00  0.439710D+01  0.127564D+01
     23  0.256187D+00  0.927689D+00 -0.227174D-01  0.113973D+01 -0.195226D+01
     24 -0.262262D-05 -0.638342D+00  0.888356D+00  0.555285D+00 -0.295812D+00
     25 -0.864049D+00 -0.441485D+01  0.359178D+01  0.226603D+01 -0.127578D+01
     26 -0.117327D+01 -0.447810D+01  0.227969D+01  0.280801D+01 -0.156128D+01
     27 -0.733059D+00 -0.278380D+01  0.277507D+01 -0.424977D+00 -0.973963D+00
     28  0.389589D+00  0.143158D+01 -0.143537D+01 -0.906229D+00 -0.161710D+01
     29 -0.166958D+00 -0.121888D+01 -0.461431D+00 -0.130871D+01  0.185794D+00
     30 -0.150761D+00 -0.113686D+01 -0.999624D-01 -0.105451D+01 -0.787428D+00
     31 -0.169982D+00 -0.122074D+01  0.650792D+00 -0.123087D+01 -0.312320D-01
     32 -0.148278D+00 -0.110627D+01  0.817404D+00  0.460883D+00 -0.870306D+00
     33 -0.166182D+00 -0.119679D+01  0.736018D+00  0.114878D+01 -0.832869D-01
     34 -0.165056D+00 -0.118007D+01  0.132702D+01  0.225354D+00  0.224551D-03
               16            17            18            19            20 
     16 -0.101511D+02
     17 -0.615295D+00 -0.863035D+01
     18 -0.196833D+00 -0.158886D+01 -0.945389D+01
     19 -0.281813D-02 -0.209451D-03 -0.328215D-01 -0.264803D+02
     20 -0.108165D+00 -0.189911D-01 -0.413959D+00 -0.644351D+01 -0.133845D+02
     21 -0.598938D-01 -0.282846D-01 -0.556999D+00 -0.154474D-01 -0.180921D+00
     22  0.167102D+00  0.198499D-01  0.132692D+00  0.991995D-01  0.115940D+01
     23  0.138323D-01 -0.888662D-03 -0.555028D-01  0.796484D-02  0.911485D-01
     24 -0.459376D-01 -0.168187D-04 -0.101591D-03  0.000000D+00 -0.417066D-01
     25 -0.557199D+00 -0.454633D-02 -0.139594D-01 -0.421059D-01 -0.799052D+00
     26 -0.719205D+00 -0.900774D-02 -0.234696D-01 -0.457259D-01 -0.605828D+00
     27  0.239838D+00 -0.327749D-03 -0.107392D-01 -0.866657D-01 -0.101582D+01
     28  0.122662D+00  0.200628D-03 -0.128795D-03  0.558779D-02  0.878304D-01
     29 -0.517566D-01 -0.347608D-01 -0.729714D+00 -0.160340D+01 -0.586791D+01
     30 -0.437590D-01 -0.178232D-01 -0.392447D+00 -0.156663D+01 -0.579917D+01
     31 -0.180393D-01 -0.131020D-02 -0.408593D-01 -0.160431D+01 -0.578329D+01
     32 -0.187549D+00 -0.265735D-02 -0.838095D-02 -0.211220D-01 -0.335025D+00
     33 -0.810968D+00 -0.516026D-02 -0.495602D-02 -0.275776D-02 -0.103022D+00
     34 -0.735443D-01 -0.436076D-03 -0.250453D-02 -0.317552D-01 -0.428927D+00
               21            22            23            24            25 
     21 -0.122316D+02
     22  0.329460D-01 -0.126387D+02
     23  0.423230D-02 -0.602188D-01 -0.121350D+02
     24  0.451494D-01  0.859092D-01 -0.549418D-02 -0.262122D+02
     25  0.493681D+00  0.107338D+01 -0.463072D-01 -0.637692D+01 -0.131168D+02
     26  0.994837D-01  0.879001D+00 -0.330516D-01 -0.853084D-01 -0.997678D+00
     27  0.694339D+00  0.118044D+01 -0.692474D-01 -0.503729D-01 -0.589567D+00
     28 -0.522237D-01 -0.128182D+00 -0.286036D+00  0.180049D-01  0.208762D+00
     29 -0.360754D+01 -0.202092D+01  0.292029D+01 -0.291899D-02 -0.106710D+00
     30 -0.985620D+00 -0.759422D+00 -0.487060D+01 -0.152062D-01 -0.275936D+00
     31  0.454806D+01 -0.139776D+01  0.127232D+01 -0.423553D-01 -0.518777D+00
     32  0.208310D+00  0.395660D+00 -0.189638D+00 -0.155144D+01 -0.565803D+01
     33  0.469898D-01  0.161979D+00  0.998530D-02 -0.158728D+01 -0.571388D+01
     34  0.425131D+00  0.421720D+00  0.726142D-01 -0.158382D+01 -0.567162D+01
               26            27            28            29            30 
     26 -0.122562D+02
     27 -0.193761D+00 -0.120522D+02
     28  0.937047D-01  0.550134D-01 -0.118940D+02
     29 -0.103924D+00 -0.135576D+00  0.377297D-01 -0.986999D+01
     30 -0.207409D+00 -0.337525D+00 -0.107919D+00 -0.191272D+01 -0.983150D+01
     31 -0.962724D-01 -0.699438D+00  0.116457D+00 -0.189612D+01 -0.187162D+01
     32  0.380609D+00 -0.182522D+00 -0.486496D+01 -0.359604D-01 -0.271130D+00
     33 -0.743821D+00  0.457195D+01  0.159655D+01 -0.174749D-01 -0.329215D-01
     34  0.370135D+01 -0.219249D+01  0.221388D+01 -0.631477D-01 -0.117495D+00
               31            32            33            34 
     31 -0.957614D+01
     32 -0.215708D+00 -0.952938D+01
     33 -0.624110D-01 -0.185493D+01 -0.952076D+01
     34 -0.655103D+00 -0.183863D+01 -0.185682D+01 -0.939328D+01
 SSO for IR=          1
                 1             2             3             4             5 
      1   0.100000D+01  0.248362D+00  0.000000D+00  0.000000D+00  0.000000D+00
      2   0.248362D+00  0.100000D+01  0.000000D+00  0.000000D+00  0.000000D+00
      3   0.000000D+00  0.000000D+00  0.100000D+01  0.000000D+00  0.000000D+00
      4   0.000000D+00  0.000000D+00  0.000000D+00  0.100000D+01  0.000000D+00
      5   0.000000D+00  0.000000D+00  0.000000D+00  0.000000D+00  0.100000D+01
      6   0.208350D-05  0.424079D-01  0.629110D-01  0.289058D-01  0.123094D-01
      7   0.424079D-01  0.390941D+00  0.363519D+00  0.167026D+00  0.711273D-01
      8  -0.629110D-01 -0.363519D+00 -0.216172D+00 -0.206708D+00 -0.880256D-01
      9  -0.289058D-01 -0.167026D+00 -0.206708D+00  0.138735D+00 -0.404452D-01
     10  -0.123094D-01 -0.711273D-01 -0.880256D-01 -0.404452D-01  0.216488D+00
     11   0.000000D+00  0.300800D-01 -0.439270D-01  0.231902D-01 -0.505504D-02
     12   0.297995D-01  0.325713D+00 -0.337193D+00  0.178013D+00 -0.388035D-01
     13   0.440948D-01  0.291595D+00 -0.205591D+00  0.205323D+00 -0.447566D-01
     14  -0.232788D-01 -0.153941D+00  0.205323D+00  0.749372D-01  0.236282D-01
     15   0.507435D-02  0.335562D-01 -0.447566D-01  0.236282D-01  0.178182D+00
     16   0.623904D-01  0.491209D+00 -0.314170D-01 -0.462700D+00 -0.593398D-01
     17   0.615990D-02  0.106668D+00  0.134948D+00 -0.487019D-02  0.158417D-01
     18   0.554403D-02  0.988618D-01  0.803459D-01  0.958148D-01  0.237315D-01
     19   0.000000D+00  0.174323D-02 -0.210357D-02  0.344131D-02  0.191821D-03
     20   0.174323D-02  0.593387D-01 -0.456482D-01  0.746774D-01  0.416258D-02
     21   0.210357D-02  0.456482D-01 -0.139677D-01  0.633588D-01  0.353167D-02
     22  -0.344131D-02 -0.746774D-01  0.633588D-01 -0.788891D-01 -0.577758D-02
     23  -0.191821D-03 -0.416258D-02  0.353167D-02 -0.577758D-02  0.244396D-01
     24   0.000000D+00  0.178571D-02 -0.409915D-02 -0.167058D-03  0.433628D-03
     25   0.178571D-02  0.601722D-01 -0.881445D-01 -0.359226D-02  0.932437D-02
     26   0.409915D-02  0.881445D-01 -0.117327D+00 -0.580647D-02  0.150718D-01
     27   0.167058D-03  0.359226D-02 -0.580647D-02  0.249118D-01  0.614238D-03
     28  -0.433628D-03 -0.932437D-02  0.150718D-01  0.614238D-03  0.235541D-01
     29   0.122572D-02  0.345558D-01 -0.970604D-02  0.482248D-01 -0.934837D-02
     30   0.813905D-03  0.262728D-01 -0.148648D-01  0.322155D-01  0.163202D-01
     31   0.123650D-03  0.776986D-02 -0.859233D-02  0.935372D-02 -0.586451D-03
     32   0.603950D-03  0.215695D-01 -0.288590D-01 -0.113351D-02  0.151649D-01
     33   0.164701D-02  0.422234D-01 -0.538418D-01 -0.263610D-01 -0.185939D-02
     34   0.132854D-03  0.813062D-02 -0.131633D-01  0.135783D-02 -0.876930D-03
                 6             7             8             9            10 
      1   0.208350D-05  0.424079D-01 -0.629110D-01 -0.289058D-01 -0.123094D-01
      2   0.424079D-01  0.390941D+00 -0.363519D+00 -0.167026D+00 -0.711273D-01
      3   0.629110D-01  0.363519D+00 -0.216172D+00 -0.206708D+00 -0.880256D-01
      4   0.289058D-01  0.167026D+00 -0.206708D+00  0.138735D+00 -0.404452D-01
      5   0.123094D-01  0.711273D-01 -0.880256D-01 -0.404452D-01  0.216488D+00
      6   0.100000D+01  0.248362D+00  0.000000D+00  0.000000D+00  0.000000D+00
      7   0.248362D+00  0.100000D+01  0.000000D+00  0.000000D+00  0.000000D+00
      8   0.000000D+00  0.000000D+00  0.100000D+01  0.000000D+00  0.000000D+00
      9   0.000000D+00  0.000000D+00  0.000000D+00  0.100000D+01  0.000000D+00
     10   0.000000D+00  0.000000D+00  0.000000D+00  0.000000D+00  0.100000D+01
     11   0.000000D+00  0.118943D-02 -0.278514D-02  0.103543D-03 -0.432059D-03
     12   0.547206D-03  0.398678D-01 -0.635924D-01  0.236416D-02 -0.986509D-02
     13   0.141264D-02  0.571937D-01 -0.835637D-01  0.369516D-02 -0.154190D-01
     14  -0.525174D-04 -0.212628D-02  0.369516D-02  0.156931D-01  0.573230D-03
     15   0.219143D-03  0.887245D-02 -0.154190D-01  0.573230D-03  0.134385D-01
     16   0.612074D-02  0.106178D+00 -0.822212D-01 -0.104880D+00 -0.240502D-01
     17   0.630869D-01  0.493949D+00  0.381950D+00 -0.272433D+00  0.398455D-02
     18   0.630274D-01  0.493716D+00  0.643848D-01  0.459133D+00  0.710213D-01
     19   0.000000D+00  0.258239D-03 -0.607160D-03  0.372635D-03 -0.295967D-04
     20   0.258239D-03  0.200012D-01 -0.280511D-01  0.172159D-01 -0.136738D-02
     21   0.607160D-03  0.280511D-01 -0.346154D-01  0.258816D-01 -0.205565D-02
     22  -0.372635D-03 -0.172159D-01  0.258816D-01 -0.832920D-02  0.126163D-02
     23   0.295967D-04  0.136738D-02 -0.205565D-02  0.126163D-02  0.745507D-02
     24   0.000000D+00  0.561201D-05 -0.192607D-04 -0.347581D-05  0.000000D+00
     25   0.561201D-05  0.244370D-02 -0.463978D-02 -0.837301D-03  0.241502D-04
     26   0.192607D-04  0.463978D-02 -0.828338D-02 -0.164379D-02  0.474117D-04
     27   0.347581D-05  0.837301D-03 -0.164379D-02  0.528798D-03  0.855599D-05
[...]
        -40.00000000         -0.28483715          0.00443659          0.23273788
       -285.32351213       -150.43903482        -38.69676404          0.26395714
         -0.37784734          0.05547163       -228.43545642       -125.12072965
        -16.51268627         91.47361202        152.06068048        -49.50890052
         19.47883772         -7.39368748          2.05480606        -17.16466465
      -4688.41640043      -1510.12006031       -162.31994510       -158.79993312
        -94.82115784         81.42773773         -9.00000922         39.59209212
         -0.86106399       -768.89724604       -280.40183780       -182.18980167
         41.58355351         15.84856940        -21.48494090
 Electronic spatial extent (au):  <R**2>=            474.4593
 DipInt: DoE/N= F T RetVal/Mat= T F Init=T NMatP=  1 IDeriv=0 Min/MaxMlt=  0  4
 Nuclear    moments (au):
         40.00000000          0.00001890         -0.00001890         -0.00000000
        262.56404415        129.10061789         14.81543735         -0.00022169
         -0.00034298         -0.00002803        218.56620166        124.26046513
         17.79603477        -92.77882287       -151.71041311         48.25367745
        -21.54821979          8.33028202         -3.62803223         17.58068612
       3702.50136614       1010.64832030         47.78838190        151.65930181
         99.92007880        -75.32329783         10.29980391        -44.02005268
          1.32340441        526.48493993         90.34584686         77.90352821
        -42.80621414        -14.71479077         24.05334039
 Total      moments (au):
          0.00000000         -0.28481825          0.00441770          0.23273788
        -22.75946798        -21.33841693        -23.88132669          0.26373545
         -0.37819032          0.05544360         -9.86925475         -0.86026452
          1.28334850         -1.30521085          0.35026737         -1.25522307
         -2.06938207          0.93659454         -1.57322616          0.41602147
       -985.91503429       -499.47174001       -114.53156320         -7.14063131
          5.09892097          6.10443990          1.29979470         -4.42796056
          0.46234042       -242.41230611       -190.05599094       -104.28627346
         -1.22266062          1.13377863          2.56839949
 Traceless Quadrup. (au):
         -0.09973078          1.32132027         -1.22158949          0.26373545
         -0.37819032          0.05544360
 Charge=              0.0000 electrons
 Dipole moment (field-independent basis, Debye):
    X=             -0.7239    Y=              0.0112    Z=              0.5916  Tot=              0.9350
 Quadrupole moment (field-independent basis, Debye-Ang):
   XX=            -30.6123   YY=            -28.7009   ZZ=            -32.1212
   XY=              0.3547   XZ=             -0.5087   YZ=              0.0746
 Traceless Quadrupole moment (field-independent basis, Debye-Ang):
   XX=             -0.1341   YY=              1.7772   ZZ=             -1.6431
   XY=              0.3547   XZ=             -0.5087   YZ=              0.0746
 Octapole moment (field-independent basis, Debye-Ang**2):
  XXX=             -7.0246  YYY=             -0.6123  ZZZ=              0.9134  XYY=             -0.9290
  XXY=              0.2493  XXZ=             -0.8934  XZZ=             -1.4729  YZZ=              0.6666
  YYZ=             -1.1198  XYZ=              0.2961
 Hexadecapole moment (field-independent basis, Debye-Ang**3):
 XXXX=           -371.3429 YYYY=           -188.1250 ZZZZ=            -43.1381 XXXY=             -2.6895
 XXXZ=              1.9205 YYYX=              2.2992 YYYZ=              0.4896 ZZZX=             -1.6678
 ZZZY=              0.1741 XXYY=            -91.3041 XXZZ=            -71.5842 YYZZ=            -39.2792
 XXYZ=             -0.4605 YYXZ=              0.4270 ZZXY=              0.9674
 N-N= 1.807883389650D+02 E-N=-8.473231802728D+02  KE= 2.066961763841D+02
                          Isotropic Fermi Contact Couplings
        Atom                 a.u.       MegaHertz       Gauss      10(-4) cm-1
     1  C(13)             -0.00000      -0.00000      -0.00000      -0.00000
     2  C(13)              0.00000       0.00000       0.00000       0.00000
     3  N(14)              0.00000       0.00000       0.00000       0.00000
     4  H(1)              -0.00000      -0.00000      -0.00000      -0.00000
     5  H(1)              -0.00000      -0.00000      -0.00000      -0.00000
     6  H(1)              -0.00000      -0.00000      -0.00000      -0.00000
     7  C(13)             -0.00000      -0.00000      -0.00000      -0.00000
     8  C(13)             -0.00000      -0.00000      -0.00000      -0.00000
     9  H(1)              -0.00000      -0.00000      -0.00000      -0.00000
    10  H(1)               0.00000       0.00000       0.00000       0.00000
    11  H(1)               0.00000       0.00000       0.00000       0.00000
    12  H(1)               0.00000       0.00000       0.00000       0.00000
    13  H(1)              -0.00000      -0.00000      -0.00000      -0.00000
    14  H(1)              -0.00000      -0.00000      -0.00000      -0.00000
 Entering OneElI...
 OneElI was handed  4294963517 working-precision words.
 Calculate electrostatic properties
    NBasis =    34  MinDer = 0  MaxDer = 0
    NGrid  =    14  NMatD  =   1
 Requested accuracy = 0.1000D-12
 ShPair: Thresh= 1.00D-13 NBox=     0 BxSize= 0.00D+00 RnKept= 4.64D+00
         NSMCal=                  190 NSMKep=                  14
 --------------------------------------------------------
       Center         ----  Spin Dipole Couplings  ----
                      3XX-RR        3YY-RR        3ZZ-RR
 --------------------------------------------------------
     1   Atom        0.000000      0.000000      0.000000
     2   Atom        0.000000      0.000000      0.000000
     3   Atom        0.000000      0.000000      0.000000
     4   Atom        0.000000      0.000000      0.000000
     5   Atom        0.000000      0.000000      0.000000
     6   Atom        0.000000      0.000000      0.000000
     7   Atom        0.000000      0.000000      0.000000
     8   Atom        0.000000      0.000000      0.000000
     9   Atom        0.000000      0.000000      0.000000
    10   Atom        0.000000      0.000000      0.000000
    11   Atom        0.000000      0.000000      0.000000
    12   Atom        0.000000      0.000000      0.000000
    13   Atom        0.000000      0.000000      0.000000
    14   Atom        0.000000      0.000000      0.000000
 --------------------------------------------------------
                        XY            XZ            YZ
 --------------------------------------------------------
     1   Atom        0.000000      0.000000      0.000000
     2   Atom        0.000000      0.000000      0.000000
     3   Atom        0.000000      0.000000      0.000000
     4   Atom        0.000000      0.000000      0.000000
     5   Atom        0.000000      0.000000      0.000000
     6   Atom        0.000000      0.000000      0.000000
     7   Atom        0.000000      0.000000      0.000000
     8   Atom        0.000000      0.000000      0.000000
     9   Atom        0.000000      0.000000      0.000000
    10   Atom        0.000000      0.000000      0.000000
    11   Atom        0.000000      0.000000      0.000000
    12   Atom        0.000000      0.000000      0.000000
    13   Atom        0.000000      0.000000      0.000000
    14   Atom        0.000000      0.000000      0.000000
 --------------------------------------------------------


 ---------------------------------------------------------------------------------
              Anisotropic Spin Dipole Couplings in Principal Axis System
 ---------------------------------------------------------------------------------

       Atom             a.u.   MegaHertz   Gauss  10(-4) cm-1        Axes

              Baa     0.0000     0.000     0.000     0.000  1.0000  0.0000  0.0000
     1 C(13)  Bbb     0.0000     0.000     0.000     0.000 -0.0000  1.0000  0.0000
              Bcc     0.0000     0.000     0.000     0.000  0.0000  0.0000  1.0000
 
              Baa     0.0000     0.000     0.000     0.000  1.0000  0.0000  0.0000
     2 C(13)  Bbb     0.0000     0.000     0.000     0.000 -0.0000  1.0000  0.0000
              Bcc     0.0000     0.000     0.000     0.000  0.0000  0.0000  1.0000
 
              Baa     0.0000     0.000     0.000     0.000  1.0000  0.0000  0.0000
     3 N(14)  Bbb     0.0000     0.000     0.000     0.000 -0.0000  1.0000  0.0000
              Bcc     0.0000     0.000     0.000     0.000  0.0000  0.0000  1.0000
 
              Baa     0.0000     0.000     0.000     0.000  1.0000  0.0000  0.0000
     4 H(1)   Bbb     0.0000     0.000     0.000     0.000 -0.0000  1.0000  0.0000
              Bcc     0.0000     0.000     0.000     0.000  0.0000  0.0000  1.0000
 
              Baa     0.0000     0.000     0.000     0.000  1.0000  0.0000  0.0000
     5 H(1)   Bbb     0.0000     0.000     0.000     0.000 -0.0000  1.0000  0.0000
              Bcc     0.0000     0.000     0.000     0.000  0.0000  0.0000  1.0000
 
              Baa     0.0000     0.000     0.000     0.000  1.0000  0.0000  0.0000
     6 H(1)   Bbb     0.0000     0.000     0.000     0.000 -0.0000  1.0000  0.0000
              Bcc     0.0000     0.000     0.000     0.000  0.0000  0.0000  1.0000
 
              Baa     0.0000     0.000     0.000     0.000  1.0000  0.0000  0.0000
     7 C(13)  Bbb     0.0000     0.000     0.000     0.000 -0.0000  1.0000  0.0000
              Bcc     0.0000     0.000     0.000     0.000  0.0000  0.0000  1.0000
 
              Baa     0.0000     0.000     0.000     0.000  1.0000  0.0000  0.0000
     8 C(13)  Bbb     0.0000     0.000     0.000     0.000 -0.0000  1.0000  0.0000
              Bcc     0.0000     0.000     0.000     0.000  0.0000  0.0000  1.0000
 
              Baa     0.0000     0.000     0.000     0.000  1.0000  0.0000  0.0000
     9 H(1)   Bbb     0.0000     0.000     0.000     0.000 -0.0000  1.0000  0.0000
              Bcc     0.0000     0.000     0.000     0.000  0.0000  0.0000  1.0000
 
              Baa     0.0000     0.000     0.000     0.000  1.0000  0.0000  0.0000
    10 H(1)   Bbb     0.0000     0.000     0.000     0.000 -0.0000  1.0000  0.0000
              Bcc     0.0000     0.000     0.000     0.000  0.0000  0.0000  1.0000
 
              Baa     0.0000     0.000     0.000     0.000  1.0000  0.0000  0.0000
    11 H(1)   Bbb     0.0000     0.000     0.000     0.000 -0.0000  1.0000  0.0000
              Bcc     0.0000     0.000     0.000     0.000  0.0000  0.0000  1.0000
 
              Baa     0.0000     0.000     0.000     0.000  1.0000  0.0000  0.0000
    12 H(1)   Bbb     0.0000     0.000     0.000     0.000 -0.0000  1.0000  0.0000
              Bcc     0.0000     0.000     0.000     0.000  0.0000  0.0000  1.0000
 
              Baa     0.0000     0.000     0.000     0.000  1.0000  0.0000  0.0000
    13 H(1)   Bbb     0.0000     0.000     0.000     0.000 -0.0000  1.0000  0.0000
              Bcc     0.0000     0.000     0.000     0.000  0.0000  0.0000  1.0000
 
              Baa     0.0000     0.000     0.000     0.000  1.0000  0.0000  0.0000
    14 H(1)   Bbb     0.0000     0.000     0.000     0.000 -0.0000  1.0000  0.0000
              Bcc     0.0000     0.000     0.000     0.000  0.0000  0.0000  1.0000
 

 ---------------------------------------------------------------------------------

 Entering OneElI...
 OneElI was handed  4294963517 working-precision words.
 Calculate electrostatic properties
    NBasis =    34  MinDer = 0  MaxDer = 0
    NGrid  =    14  NMatD  =   1
 Requested accuracy = 0.1000D-12
 ShPair: Thresh= 1.00D-13 NBox=     0 BxSize= 0.00D+00 RnKept= 1.02D+01
         NSMCal=                  190 NSMKep=                 184
 PrmmSu-InSpLW:  IPartL=    0 NPrtUS=   12 NPrtUL=    1 DoSpLW=F IThBeg=    0 IThEnd=   11 NThAct=   12.
 PrSmSu:  IncTry=   512 NBBP=           2576 NTPThr=   100 NPartT=   12 Incr=           2 LDynOK=F GPUOK=F.
 PrsmSu:  NPrtUS=  12 ThrOK=T IAlg=2 LenDen=           0 ISkipM=0 DoSpLW=F IThBeg=    0 IThEnd=   11.
 Prism:   IPart=     0 DynPar=F LinDyn=F Incr=           2.
 PRISM was handed   357899830 working-precision words and   184 shell-pairs
 PRISM was handed   357899830 working-precision words and   184 shell-pairs
 PRISM was handed   357899830 working-precision words and   184 shell-pairs
 PRISM was handed   357899830 working-precision words and   184 shell-pairs
 PRISM was handed   357899830 working-precision words and   184 shell-pairs
 PRISM was handed   357899830 working-precision words and   184 shell-pairs
 PRISM was handed   357899830 working-precision words and   184 shell-pairs
 PRISM was handed   357899830 working-precision words and   184 shell-pairs
 PRISM was handed   357899830 working-precision words and   184 shell-pairs
 PRISM was handed   357899830 working-precision words and   184 shell-pairs
 PRISM was handed   357899830 working-precision words and   184 shell-pairs
 PRISM was handed   357899830 working-precision words and   184 shell-pairs
 IPart=  0 NShTot=         308 NBatch=          22 AvBLen=        14.0
 PrsmSu-ThDecC:  IPartSL=    0    0 NPrtUSL=   12    1 IThBeg=    0 IThEnd=   11 CPU=   -1 GPU=   -1 NThAct=   12.
 IPart= 10 NShTot=         154 NBatch=          11 AvBLen=        14.0
 PrsmSu-ThDecC:  IPartSL=   10    0 NPrtUSL=   12    1 IThBeg=    0 IThEnd=   11 CPU=   -1 GPU=   -1 NThAct=   11.
 IPart=  7 NShTot=         168 NBatch=          12 AvBLen=        14.0
 PrsmSu-ThDecC:  IPartSL=    7    0 NPrtUSL=   12    1 IThBeg=    0 IThEnd=   11 CPU=   -1 GPU=   -1 NThAct=   10.
 IPart=  5 NShTot=         210 NBatch=          15 AvBLen=        14.0
 PrsmSu-ThDecC:  IPartSL=    5    0 NPrtUSL=   12    1 IThBeg=    0 IThEnd=   11 CPU=   -1 GPU=   -1 NThAct=    9.
 IPart=  6 NShTot=         196 NBatch=          14 AvBLen=        14.0
 PrsmSu-ThDecC:  IPartSL=    6    0 NPrtUSL=   12    1 IThBeg=    0 IThEnd=   11 CPU=   -1 GPU=   -1 NThAct=    8.
 IPart=  4 NShTot=         238 NBatch=          17 AvBLen=        14.0
 PrsmSu-ThDecC:  IPartSL=    4    0 NPrtUSL=   12    1 IThBeg=    0 IThEnd=   11 CPU=   -1 GPU=   -1 NThAct=    7.
 IPart=  2 NShTot=         280 NBatch=          20 AvBLen=        14.0
 PrsmSu-ThDecC:  IPartSL=    2    0 NPrtUSL=   12    1 IThBeg=    0 IThEnd=   11 CPU=   -1 GPU=   -1 NThAct=    6.
 IPart=  9 NShTot=         154 NBatch=          11 AvBLen=        14.0
 PrsmSu-ThDecC:  IPartSL=    9    0 NPrtUSL=   12    1 IThBeg=    0 IThEnd=   11 CPU=   -1 GPU=   -1 NThAct=    5.
 IPart=  1 NShTot=         308 NBatch=          22 AvBLen=        14.0
 PrsmSu-ThDecC:  IPartSL=    1    0 NPrtUSL=   12    1 IThBeg=    0 IThEnd=   11 CPU=   -1 GPU=   -1 NThAct=    4.
 IPart= 11 NShTot=         140 NBatch=          10 AvBLen=        14.0
 PrsmSu-ThDecC:  IPartSL=   11    0 NPrtUSL=   12    1 IThBeg=    0 IThEnd=   11 CPU=   -1 GPU=   -1 NThAct=    3.
 IPart=  3 NShTot=         266 NBatch=          19 AvBLen=        14.0
 PrsmSu-ThDecC:  IPartSL=    3    0 NPrtUSL=   12    1 IThBeg=    0 IThEnd=   11 CPU=   -1 GPU=   -1 NThAct=    2.
 IPart=  8 NShTot=         154 NBatch=          11 AvBLen=        14.0
 PrsmSu-ThDecC:  IPartSL=    8    0 NPrtUSL=   12    1 IThBeg=    0 IThEnd=   11 CPU=   -1 GPU=   -1 NThAct=    1.
 PrSmSu:  NxtVal=             25.
 --------------------------------------------------------
       Center         ----      EFG at Nuclei      ----
                      3XX-RR        3YY-RR        3ZZ-RR
 --------------------------------------------------------
     1   Atom       -1.143999     -0.674281      1.818280
     2   Atom       -1.279778     -0.677840      1.957619
     3   Atom       -0.852857     -0.648389      1.501246
     4   Atom        0.081543     -0.262375      0.180833
     5   Atom       -0.169001     -0.047469      0.216470
     6   Atom        0.073007     -0.264979      0.191972
     7   Atom        0.121456     -0.190226      0.068771
     8   Atom       -0.126977      0.069893      0.057084
     9   Atom       -0.058924      0.044612      0.014311
    10   Atom        0.137407      0.124430     -0.261837
    11   Atom       -0.223598      0.089579      0.134019
    12   Atom        0.143767      0.147991     -0.291758
    13   Atom        0.151123     -0.270117      0.118995
    14   Atom       -0.148915      0.077738      0.071177
 --------------------------------------------------------
                        XY            XZ            YZ
 --------------------------------------------------------
     1   Atom        0.282163     -0.665199     -0.242220
     2   Atom        0.384577     -0.260858     -0.376967
     3   Atom        0.169299      1.065605     -0.311961
     4   Atom       -0.033624     -0.026232     -0.065450
     5   Atom        0.251265     -0.013965     -0.004886
     6   Atom       -0.078050     -0.023769     -0.070214
     7   Atom        0.026311      0.005819     -0.096109
     8   Atom       -0.132938      0.120661      0.061027
     9   Atom       -0.152075      0.178155      0.121896
    10   Atom       -0.019956     -0.079963     -0.089809
    11   Atom        0.144939     -0.106879      0.038999
    12   Atom       -0.006409      0.054731     -0.001218
    13   Atom        0.029222      0.016229     -0.133505
    14   Atom        0.146281     -0.163136      0.086290
 --------------------------------------------------------


 ---------------------------------------------------------------------------------
              Nuclear Quadrupole Coupling Constant in Principal Axis System
 ---------------------------------------------------------------------------------

       Atom             a.u.   MegaHertz   Gauss  10(-4) cm-1        Axes

              Baa    -1.3674     6.567     2.343     2.191  0.8616 -0.3587 -0.3591
     3 N(14)  Bbb    -0.5653     2.715     0.969     0.906  0.3665  0.9292 -0.0487
              Bcc     1.9327    -9.282    -3.312    -3.096  0.3511 -0.0896  0.9320
 

 ---------------------------------------------------------------------------------

 No NMR shielding tensors so no spin-rotation constants.
 Leave Link  601 at Sun May 17 05:10:02 2020, MaxMem=  4294967296 cpu:               3.2 elap:               0.3
 (Enter /opt/gaussian/gdv-20180628-i14+/gdv/l9999.exe)

 Test job not archived.
 1\1\GINC-NODE11\SP\CASSCF\STO-3G\C4H9N1\KRANKA\17-May-2020\0\\#P CASSC
 F(4,3,fulldiag,NRoot=9,StateAverage,SaveGEDensities,QC)/sto-3g scf(tig
 ht,maxcyc=1500) nosymm iop(6/8=1,3/33=3,3/36=1,4/33=3,5/33=3,6/33=3,9/
 33=3,5/72=-3) guess=read\\CASSCF calc.\\0,1\C,0,0.80047,-0.66509,-0.11
 827\C,0,2.00688,-0.11078,0.11778\N,0,-0.42044,-0.02054,-0.25877\H,0,0.
 72728,-1.74301,-0.25651\H,0,2.88973,-0.74049,0.12699\H,0,2.1558,0.9511
 8,0.28205\C,0,-0.46614,1.407,-0.00277\C,0,-1.60885,-0.76328,0.1366\H,0
 ,0.28052,1.9183,-0.61906\H,0,-0.26928,1.65331,1.05622\H,0,-1.45497,1.7
 9021,-0.27221\H,0,-1.76538,-0.76587,1.23004\H,0,-1.52099,-1.80168,-0.1
 9844\H,0,-2.49378,-0.32528,-0.33773\\Version=ES64L-GDVRevI.14+\HF=-207
 .5104064\RMSD=0.000e+00\Dipole=-0.2848183,0.0044177,0.2327379\Quadrupo
 le=-0.0997308,1.3213203,-1.2215895,0.2637354,-0.3781903,0.0554436\PG=C
 01 [X(C4H9N1)]\\@


 The lyf so short, the craft so long to lerne.
                             -- Chaucer
 Job cpu time:       0 days  0 hours  2 minutes  3.5 seconds.
 Elapsed time:       0 days  0 hours  0 minutes 10.8 seconds.
 File lengths (MBytes):  RWF=     21 Int=      0 D2E=      0 Chk=      3 Scr=      1
 Normal termination of Gaussian DV at Sun May 17 05:10:02 2020.
