CASSCF calc.                                                            
SP        CASSCF                                                      STO-3G              
Number of atoms                            I               14
Info1-9                                    I   N=           9
          23          23           0           0           0         111
           1           1           2
Full Title                                 C   N=           1
CASSCF calc.
Route                                      C   N=          15
#P CASSCF(4,3,fulldiag,NRoot=9,StateAverage,SaveGEDensities,
QC)/sto-3g scf(tight,maxcyc=1500) nosymm iop(6/8=1,3/33=3,3/
36=1,4/33=3,5/33=3,6/33=3,9/33=3,5/72=-3) guess=read        
Charge                                     I                0
Multiplicity                               I                1
Number of electrons                        I               40
Number of alpha electrons                  I               20
Number of beta electrons                   I               20
Number of basis functions                  I               34
Number of independent functions            I               34
Number of point charges in /Mol/           I                0
Number of translation vectors              I                0
Atomic numbers                             I   N=          14
           6           6           7           1           1           1
           6           6           1           1           1           1
           1           1
Nuclear charges                            R   N=          14
  6.00000000E+00  6.00000000E+00  7.00000000E+00  1.00000000E+00  1.00000000E+00
  1.00000000E+00  6.00000000E+00  6.00000000E+00  1.00000000E+00  1.00000000E+00
  1.00000000E+00  1.00000000E+00  1.00000000E+00  1.00000000E+00
Current cartesian coordinates              R   N=          42
  1.51266907E+00 -1.25683795E+00 -2.23497909E-01  3.79245356E+00 -2.09343860E-01
  2.22571943E-01 -7.94516452E-01 -3.88149746E-02 -4.89004429E-01  1.37436002E+00
 -3.29381153E+00 -4.84733648E-01  5.46079827E+00 -1.39932330E+00  2.39976321E-01
  4.07387158E+00  1.79746970E+00  5.32997253E-01 -8.80876936E-01  2.65884466E+00
 -5.23454137E-03 -3.04028588E+00 -1.44239016E+00  2.58136589E-01  5.30105972E-01
  3.62506162E+00 -1.16985385E+00 -5.08865451E-01  3.12430310E+00  1.99596653E+00
 -2.74949482E+00  3.38300661E+00 -5.14402348E-01 -3.33608471E+00 -1.44728455E+00
  2.32443872E+00 -2.87425454E+00 -3.40468176E+00 -3.74997252E-01 -4.71256121E+00
 -6.14690114E-01 -6.38217204E-01
Number of symbols in /Mol/                 I                0
Force Field                                I                0
Atom Types                                 C   N=          14
                                                            
                                                            
                                                
Int Atom Types                             I   N=          14
           0           0           0           0           0           0
           0           0           0           0           0           0
           0           0
MM charges                                 R   N=          14
  0.00000000E+00  0.00000000E+00  0.00000000E+00  0.00000000E+00  0.00000000E+00
  0.00000000E+00  0.00000000E+00  0.00000000E+00  0.00000000E+00  0.00000000E+00
  0.00000000E+00  0.00000000E+00  0.00000000E+00  0.00000000E+00
Integer atomic weights                     I   N=          14
          12          12          14           1           1           1
          12          12           1           1           1           1
           1           1
Real atomic weights                        R   N=          14
  1.20000000E+01  1.20000000E+01  1.40030740E+01  1.00782504E+00  1.00782504E+00
  1.00782504E+00  1.20000000E+01  1.20000000E+01  1.00782504E+00  1.00782504E+00
  1.00782504E+00  1.00782504E+00  1.00782504E+00  1.00782504E+00
Atom fragment info                         I   N=          14
           0           0           0           0           0           0
           0           0           0           0           0           0
           0           0
Atom residue num                           I   N=          14
           0           0           0           0           0           0
           0           0           0           0           0           0
           0           0
Nuclear spins                              I   N=          14
           0           0           2           1           1           1
           0           0           1           1           1           1
           1           1
Nuclear ZEff                               R   N=          14
 -3.60000000E+00 -3.60000000E+00 -4.55000000E+00 -1.00000000E+00 -1.00000000E+00
 -1.00000000E+00 -3.60000000E+00 -3.60000000E+00 -1.00000000E+00 -1.00000000E+00
 -1.00000000E+00 -1.00000000E+00 -1.00000000E+00 -1.00000000E+00
Nuclear ZNuc                               R   N=          14
  6.00000000E+00  6.00000000E+00  7.00000000E+00  1.00000000E+00  1.00000000E+00
  1.00000000E+00  6.00000000E+00  6.00000000E+00  1.00000000E+00  1.00000000E+00
  1.00000000E+00  1.00000000E+00  1.00000000E+00  1.00000000E+00
Nuclear QMom                               R   N=          14
  0.00000000E+00  0.00000000E+00  2.04400000E+00  0.00000000E+00  0.00000000E+00
  0.00000000E+00  0.00000000E+00  0.00000000E+00  0.00000000E+00  0.00000000E+00
  0.00000000E+00  0.00000000E+00  0.00000000E+00  0.00000000E+00
Nuclear GFac                               R   N=          14
  0.00000000E+00  0.00000000E+00  4.03761000E-01  2.79284600E+00  2.79284600E+00
  2.79284600E+00  0.00000000E+00  0.00000000E+00  2.79284600E+00  2.79284600E+00
  2.79284600E+00  2.79284600E+00  2.79284600E+00  2.79284600E+00
MicOpt                                     I   N=          14
          -1          -1          -1          -1          -1          -1
          -1          -1          -1          -1          -1          -1
          -1          -1
Number of residues                         I                0
Number of secondary structures             I                0
Number of contracted shells                I               19
Number of primitive shells                 I               57
Pure/Cartesian d shells                    I                0
Pure/Cartesian f shells                    I                0
Highest angular momentum                   I                1
Largest degree of contraction              I                3
Shell types                                I   N=          19
           0          -1           0          -1           0          -1
           0           0           0           0          -1           0
          -1           0           0           0           0           0
           0
Number of primitives per shell             I   N=          19
           3           3           3           3           3           3
           3           3           3           3           3           3
           3           3           3           3           3           3
           3
Shell to atom map                          I   N=          19
           1           1           2           2           3           3
           4           5           6           7           7           8
           8           9          10          11          12          13
          14
Primitive exponents                        R   N=          57
  7.16168373E+01  1.30450963E+01  3.53051216E+00  2.94124936E+00  6.83483096E-01
  2.22289916E-01  7.16168373E+01  1.30450963E+01  3.53051216E+00  2.94124936E+00
  6.83483096E-01  2.22289916E-01  9.91061690E+01  1.80523124E+01  4.88566024E+00
  3.78045588E+00  8.78496645E-01  2.85714374E-01  3.42525091E+00  6.23913730E-01
  1.68855404E-01  3.42525091E+00  6.23913730E-01  1.68855404E-01  3.42525091E+00
  6.23913730E-01  1.68855404E-01  7.16168373E+01  1.30450963E+01  3.53051216E+00
  2.94124936E+00  6.83483096E-01  2.22289916E-01  7.16168373E+01  1.30450963E+01
  3.53051216E+00  2.94124936E+00  6.83483096E-01  2.22289916E-01  3.42525091E+00
  6.23913730E-01  1.68855404E-01  3.42525091E+00  6.23913730E-01  1.68855404E-01
  3.42525091E+00  6.23913730E-01  1.68855404E-01  3.42525091E+00  6.23913730E-01
  1.68855404E-01  3.42525091E+00  6.23913730E-01  1.68855404E-01  3.42525091E+00
  6.23913730E-01  1.68855404E-01
Contraction coefficients                   R   N=          57
  1.54328967E-01  5.35328142E-01  4.44634542E-01 -9.99672292E-02  3.99512826E-01
  7.00115469E-01  1.54328967E-01  5.35328142E-01  4.44634542E-01 -9.99672292E-02
  3.99512826E-01  7.00115469E-01  1.54328967E-01  5.35328142E-01  4.44634542E-01
 -9.99672292E-02  3.99512826E-01  7.00115469E-01  1.54328967E-01  5.35328142E-01
  4.44634542E-01  1.54328967E-01  5.35328142E-01  4.44634542E-01  1.54328967E-01
  5.35328142E-01  4.44634542E-01  1.54328967E-01  5.35328142E-01  4.44634542E-01
 -9.99672292E-02  3.99512826E-01  7.00115469E-01  1.54328967E-01  5.35328142E-01
  4.44634542E-01 -9.99672292E-02  3.99512826E-01  7.00115469E-01  1.54328967E-01
  5.35328142E-01  4.44634542E-01  1.54328967E-01  5.35328142E-01  4.44634542E-01
  1.54328967E-01  5.35328142E-01  4.44634542E-01  1.54328967E-01  5.35328142E-01
  4.44634542E-01  1.54328967E-01  5.35328142E-01  4.44634542E-01  1.54328967E-01
  5.35328142E-01  4.44634542E-01
P(S=P) Contraction coefficients            R   N=          57
  0.00000000E+00  0.00000000E+00  0.00000000E+00  1.55916275E-01  6.07683719E-01
  3.91957393E-01  0.00000000E+00  0.00000000E+00  0.00000000E+00  1.55916275E-01
  6.07683719E-01  3.91957393E-01  0.00000000E+00  0.00000000E+00  0.00000000E+00
  1.55916275E-01  6.07683719E-01  3.91957393E-01  0.00000000E+00  0.00000000E+00
  0.00000000E+00  0.00000000E+00  0.00000000E+00  0.00000000E+00  0.00000000E+00
  0.00000000E+00  0.00000000E+00  0.00000000E+00  0.00000000E+00  0.00000000E+00
  1.55916275E-01  6.07683719E-01  3.91957393E-01  0.00000000E+00  0.00000000E+00
  0.00000000E+00  1.55916275E-01  6.07683719E-01  3.91957393E-01  0.00000000E+00
  0.00000000E+00  0.00000000E+00  0.00000000E+00  0.00000000E+00  0.00000000E+00
  0.00000000E+00  0.00000000E+00  0.00000000E+00  0.00000000E+00  0.00000000E+00
  0.00000000E+00  0.00000000E+00  0.00000000E+00  0.00000000E+00  0.00000000E+00
  0.00000000E+00  0.00000000E+00
Coordinates of each shell                  R   N=          57
  1.51266907E+00 -1.25683795E+00 -2.23497909E-01  1.51266907E+00 -1.25683795E+00
 -2.23497909E-01  3.79245356E+00 -2.09343860E-01  2.22571943E-01  3.79245356E+00
 -2.09343860E-01  2.22571943E-01 -7.94516452E-01 -3.88149746E-02 -4.89004429E-01
 -7.94516452E-01 -3.88149746E-02 -4.89004429E-01  1.37436002E+00 -3.29381153E+00
 -4.84733648E-01  5.46079827E+00 -1.39932330E+00  2.39976321E-01  4.07387158E+00
  1.79746970E+00  5.32997253E-01 -8.80876936E-01  2.65884466E+00 -5.23454137E-03
 -8.80876936E-01  2.65884466E+00 -5.23454137E-03 -3.04028588E+00 -1.44239016E+00
  2.58136589E-01 -3.04028588E+00 -1.44239016E+00  2.58136589E-01  5.30105972E-01
  3.62506162E+00 -1.16985385E+00 -5.08865451E-01  3.12430310E+00  1.99596653E+00
 -2.74949482E+00  3.38300661E+00 -5.14402348E-01 -3.33608471E+00 -1.44728455E+00
  2.32443872E+00 -2.87425454E+00 -3.40468176E+00 -3.74997252E-01 -4.71256121E+00
 -6.14690114E-01 -6.38217204E-01
Num ILSW                                   I              100
ILSW                                       I   N=         100
           0           0           0           0           0           0
           0           0           0           0           0          -1
           5           0           0           0           0           0
           0           0           0           3           0           0
           1           1           0           0           0           0
           0           0      100000           0          -1           0
           0           0           0           0           0           0
           0           0           0           1           0           0
           0 -2000000000           1           0           0         304
           0           0           4          52           0           0
           0           0           0           0           0           0
           0           0           0          14           0           1
           0           0           0           0           0           0
           0           0           0           0           0           0
           0           0           0           0           0           0
           0           0           0           0           0           0
           0           0           0           0
Num RLSW                                   I               52
RLSW                                       R   N=          52
  1.00000000E+00  1.00000000E+00  1.00000000E+00  1.00000000E+00  1.00000000E+00
  0.00000000E+00  0.00000000E+00  1.00000000E+00  0.00000000E+00  0.00000000E+00
  0.00000000E+00  0.00000000E+00  1.00000000E+00  0.00000000E+00  0.00000000E+00
  0.00000000E+00  0.00000000E+00  1.00000000E+00  0.00000000E+00  0.00000000E+00
  0.00000000E+00  0.00000000E+00  1.00000000E+00  0.00000000E+00  0.00000000E+00
  0.00000000E+00  0.00000000E+00  1.00000000E+00  0.00000000E+00  0.00000000E+00
  0.00000000E+00  0.00000000E+00  1.00000000E+00  0.00000000E+00  0.00000000E+00
  0.00000000E+00  0.00000000E+00  0.00000000E+00  1.00000000E+00  1.00000000E+00
  0.00000000E+00  1.00000000E+00  0.00000000E+00  0.00000000E+00  0.00000000E+00
  0.00000000E+00  0.00000000E+00  0.00000000E+00  0.00000000E+00  0.00000000E+00
  0.00000000E+00  0.00000000E+00
Number of CAS Electrons                    I                4
Number of CAS Orbitals                     I                3
MxBond                                     I                4
NBond                                      I   N=          14
           3           3           3           1           1           1
           4           4           1           1           1           1
           1           1
IBond                                      I   N=          56
           2           3           4           0           1           5
           6           0           1           7           8           0
           1           0           0           0           2           0
           0           0           2           0           0           0
           3           9          10          11           3          12
          13          14           7           0           0           0
           7           0           0           0           7           0
           0           0           8           0           0           0
           8           0           0           0           8           0
           0           0
RBond                                      R   N=          56
  2.00000000E+00  1.00000000E+00  1.00000000E+00  0.00000000E+00  2.00000000E+00
  1.00000000E+00  1.00000000E+00  0.00000000E+00  1.00000000E+00  1.00000000E+00
  1.00000000E+00  0.00000000E+00  1.00000000E+00  0.00000000E+00  0.00000000E+00
  0.00000000E+00  1.00000000E+00  0.00000000E+00  0.00000000E+00  0.00000000E+00
  1.00000000E+00  0.00000000E+00  0.00000000E+00  0.00000000E+00  1.00000000E+00
  1.00000000E+00  1.00000000E+00  1.00000000E+00  1.00000000E+00  1.00000000E+00
  1.00000000E+00  1.00000000E+00  1.00000000E+00  0.00000000E+00  0.00000000E+00
  0.00000000E+00  1.00000000E+00  0.00000000E+00  0.00000000E+00  0.00000000E+00
  1.00000000E+00  0.00000000E+00  0.00000000E+00  0.00000000E+00  1.00000000E+00
  0.00000000E+00  0.00000000E+00  0.00000000E+00  1.00000000E+00  0.00000000E+00
  0.00000000E+00  0.00000000E+00  1.00000000E+00  0.00000000E+00  0.00000000E+00
  0.00000000E+00
Virial Ratio                               R      0.000000000000000E+00
SCF Energy                                 R     -2.075104063634615E+02
Total Energy                               R     -2.075104063634615E+02
Job Status                                 I                1
Nuclear derivative order                   I                0
External E-field                           R   N=         105
  0.00000000E+00  0.00000000E+00  0.00000000E+00  0.00000000E+00  0.00000000E+00
  0.00000000E+00  0.00000000E+00  0.00000000E+00  0.00000000E+00  0.00000000E+00
  0.00000000E+00  0.00000000E+00  0.00000000E+00  0.00000000E+00  0.00000000E+00
  0.00000000E+00  0.00000000E+00  0.00000000E+00  0.00000000E+00  0.00000000E+00
  0.00000000E+00  0.00000000E+00  0.00000000E+00  0.00000000E+00  0.00000000E+00
  0.00000000E+00  0.00000000E+00  0.00000000E+00  0.00000000E+00  0.00000000E+00
  0.00000000E+00  0.00000000E+00  0.00000000E+00  0.00000000E+00  0.00000000E+00
  0.00000000E+00  0.00000000E+00  0.00000000E+00  0.00000000E+00  0.00000000E+00
  0.00000000E+00  0.00000000E+00  0.00000000E+00  0.00000000E+00  0.00000000E+00
  0.00000000E+00  0.00000000E+00  0.00000000E+00  0.00000000E+00  0.00000000E+00
  0.00000000E+00  0.00000000E+00  0.00000000E+00  0.00000000E+00  0.00000000E+00
  0.00000000E+00  0.00000000E+00  0.00000000E+00  0.00000000E+00  0.00000000E+00
  0.00000000E+00  0.00000000E+00  0.00000000E+00  0.00000000E+00  0.00000000E+00
  0.00000000E+00  0.00000000E+00  0.00000000E+00  0.00000000E+00  0.00000000E+00
  0.00000000E+00  0.00000000E+00  0.00000000E+00  0.00000000E+00  0.00000000E+00
  0.00000000E+00  0.00000000E+00  0.00000000E+00  0.00000000E+00  0.00000000E+00
  0.00000000E+00  0.00000000E+00  0.00000000E+00  0.00000000E+00  0.00000000E+00
  0.00000000E+00  0.00000000E+00  0.00000000E+00  0.00000000E+00  0.00000000E+00
  0.00000000E+00  0.00000000E+00  0.00000000E+00  0.00000000E+00  0.00000000E+00
  0.00000000E+00  0.00000000E+00  0.00000000E+00  0.00000000E+00  0.00000000E+00
  0.00000000E+00  0.00000000E+00  0.00000000E+00  0.00000000E+00  0.00000000E+00
IOpCl                                      I                0
IROHF                                      I                3
Alpha Orbital Energies                     R   N=          34
  0.00000000E+00  0.00000000E+00  0.00000000E+00  0.00000000E+00  0.00000000E+00
  0.00000000E+00  0.00000000E+00  0.00000000E+00  0.00000000E+00  0.00000000E+00
  0.00000000E+00  0.00000000E+00  0.00000000E+00  0.00000000E+00  0.00000000E+00
  0.00000000E+00  0.00000000E+00  0.00000000E+00  0.00000000E+00  0.00000000E+00
  0.00000000E+00  0.00000000E+00  0.00000000E+00  0.00000000E+00  0.00000000E+00
  0.00000000E+00  0.00000000E+00  0.00000000E+00  0.00000000E+00  0.00000000E+00
  0.00000000E+00  0.00000000E+00  0.00000000E+00  0.00000000E+00
Alpha MO coefficients                      R   N=        1156
  5.04602113E-04 -6.10064234E-03  4.31420975E-03 -2.33710026E-03  4.40281477E-04
 -1.65146569E-05  2.18462261E-04 -2.30155110E-04  3.27520429E-04  2.67468902E-05
  9.93400633E-01  3.15058258E-02  7.24878050E-04 -1.85823330E-04  2.45086436E-03
  2.78646905E-04  9.33070057E-05 -1.24591205E-04  4.93095692E-04 -5.30839733E-03
 -1.74980725E-04  4.32009240E-03  6.79116765E-04  4.93001746E-04 -5.24866286E-03
 -3.60808301E-03 -2.17107082E-03  1.08742724E-03  2.42170449E-04  1.58360533E-04
  2.78811942E-04  1.54270145E-04  2.79915577E-04  2.41905530E-04  8.62968736E-04
 -8.06787613E-03 -4.26928299E-03 -1.90372390E-03 -7.71568835E-04  9.91964680E-01
  3.72539929E-02 -1.26620947E-03 -9.48998926E-04 -3.68127879E-04 -2.21580604E-05
  3.53189500E-04  2.64217931E-04 -1.04416153E-05  9.43218214E-05  1.32795256E-05
 -7.09076637E-03 -6.85193307E-03  9.00728022E-05 -8.92551196E-05 -1.76980136E-04
  1.95970583E-04  9.90786983E-06  5.18490577E-06 -2.20444978E-05 -5.57316754E-05
  1.55505476E-05 -5.80792998E-06 -4.73738633E-05 -6.52968663E-06 -2.49021554E-05
 -1.68968088E-05 -2.13527462E-05  5.52737232E-05 -1.77293489E-04 -1.64515156E-04
  5.90566455E-05 -3.34736292E-04 -3.81567656E-05 -3.74327017E-05  1.44689283E-05
  1.86699581E-04 -1.40731026E-04 -1.38232006E-05  4.52757548E-04 -5.14572543E-03
  1.09793351E-04 -3.63910245E-03 -5.27404741E-04 -1.25141629E-04 -4.20226677E-05
 -8.35391014E-05  9.91922039E-01  3.69230275E-02 -1.18216853E-04  5.10611357E-05
 -1.91620710E-04 -1.65182859E-02 -8.04242852E-04 -6.68857572E-05 -4.14381444E-04
 -6.32970003E-05 -6.89733241E-03 -6.79879938E-03 -6.89280466E-03  6.90072338E-05
 -2.30755463E-06  1.66992829E-04 -1.93354011E-04 -1.88982059E-04  3.34391856E-04
  1.17234307E-04 -8.78552520E-05 -7.70406750E-07 -8.39563552E-05  6.70845590E-05
 -1.05970640E-05  5.55267665E-05  4.69372113E-04 -5.24415513E-03  3.06166332E-03
  1.76924094E-03 -9.03628126E-04 -7.75472916E-05  2.50060349E-05 -2.08892362E-05
  1.66713249E-02  4.47548233E-04  2.61706570E-04  3.08145118E-04 -1.37845304E-04
  9.91928499E-01  3.68599567E-02 -1.90460922E-04 -8.82210479E-05 -1.79963281E-04
 -2.40320022E-04 -8.82533608E-05 -1.87878533E-04 -6.77821019E-03 -6.89744177E-03
 -6.84045272E-03  9.92001297E-01  3.68285891E-02  8.20378661E-04  6.05778490E-04
 -4.05382421E-06 -8.21081917E-05 -8.13664757E-03  4.33587150E-03  1.98005817E-03
  8.33066247E-04  4.18270486E-04 -5.80913640E-03 -3.40633770E-03  1.55892494E-03
 -4.10570217E-04 -6.89210159E-03 -5.89798110E-05  2.43798666E-04  3.38847854E-04
 -1.11617456E-04 -3.88004623E-04  3.04026522E-04 -8.74866279E-05  3.52799695E-04
 -2.03110640E-04 -4.06816097E-04  1.03099989E-04 -4.41938166E-05 -1.74409854E-04
 -1.02504248E-04 -1.80340029E-04 -1.57621660E-05  9.55938303E-06 -2.13674065E-04
 -6.19333001E-02  1.28503103E-01 -6.23413527E-02  3.30954961E-02 -1.07575892E-02
 -9.48842315E-03  2.20580869E-02 -2.13282150E-02  4.72263551E-03 -3.31234997E-03
 -2.00596653E-01  6.64322651E-01 -2.75315392E-02  1.86853154E-02  4.43219709E-02
  2.36555592E-02 -9.83399619E-03  1.04183832E-02 -8.67681372E-02  2.17869102E-01
 -1.69267589E-03 -9.67777312E-02 -1.13021964E-02 -8.59926631E-02  2.16375299E-01
  7.57817181E-02  5.29217383E-02 -2.24825131E-02  2.67979775E-02  3.42229644E-02
  2.96343330E-02  3.31706402E-02  2.88106256E-02  2.85467413E-02  1.39353661E-01
 -3.65543482E-01  5.30855542E-02 -3.67417027E-02  3.65363770E-02  5.47702630E-02
 -1.35107376E-01  8.63514923E-02 -1.81710495E-02  1.99899500E-02  5.88920015E-02
 -2.28377428E-01 -2.06571202E-01  1.20596002E-01  7.41607328E-02 -1.10052387E-01
  2.56141994E-02 -5.98708910E-02 -1.10504186E-01  3.28883480E-01 -6.58696723E-02
  5.32561880E-02  2.68090985E-03 -1.04996065E-01  3.13175123E-01 -8.30251118E-02
  2.37300671E-02  4.85059737E-03  8.61610049E-02  7.95944605E-02  1.50799211E-01
  8.42279847E-02  7.42195779E-02  1.46119567E-01  2.17320180E-04  5.22208240E-04
 -1.97255937E-02 -2.90607193E-02 -7.54750017E-04  9.77912762E-03 -2.21373185E-02
  6.42585964E-03 -1.77571256E-03  9.63111102E-04  5.74941680E-04 -2.30220374E-03
 -1.17622965E-01 -2.33847601E-01  1.03730857E-02  1.21198550E-02 -6.21882474E-03
 -7.46544100E-03  1.55831024E-01 -4.52781968E-01 -1.46641463E-02  2.29173914E-02
  1.53014057E-02 -1.59561048E-01  4.64216241E-01  1.82736564E-02 -4.50710983E-03
 -1.39703574E-02 -1.22567857E-01 -1.07081312E-01 -1.13326373E-01  1.12892696E-01
  1.26299377E-01  1.21265342E-01  1.13328449E-01 -3.08650298E-01 -9.55510468E-02
 -1.48839364E-02 -1.96640090E-02  1.35731927E-01 -3.58845594E-01  5.18419934E-02
  4.97679505E-02  1.39889118E-02 -7.95614692E-02  3.21423308E-01 -1.59110832E-01
  6.96411941E-02 -2.53985157E-03 -9.56121634E-02 -1.21283085E-01 -8.83271169E-02
  5.30006902E-02 -1.64078675E-01 -4.17991900E-02 -1.81823681E-01 -2.90081522E-02
  6.10366922E-02 -1.88232570E-01  1.40114166E-01  1.37355149E-01 -6.74694757E-02
 -1.20457080E-01 -1.03830126E-01 -7.77455804E-02 -1.22755486E-01 -1.28897356E-01
 -8.86713737E-02  2.38831790E-02 -8.78000976E-02  1.53385943E-01  1.05350414E-01
  8.53892838E-02 -1.34193899E-01  3.76310933E-01  7.24435233E-02 -8.92594609E-02
  1.60979598E-02 -1.63508721E-02  7.24751857E-02 -8.62731600E-02  2.35798494E-01
  1.35288518E-01 -1.35338933E-01  2.49694329E-01  5.83453634E-02  3.79372453E-02
 -1.17264542E-01 -8.80288768E-02 -2.38567596E-01 -5.27498444E-02  5.19220257E-03
 -1.63990399E-02 -1.26591180E-01  2.13898935E-01 -1.31707838E-02 -1.39707354E-01
 -1.53058725E-01 -2.10205932E-02 -2.49423363E-02 -1.61489468E-01  1.61524331E-01
 -5.21467281E-02  1.67037156E-01 -1.07534443E-02 -9.90199908E-02 -2.86455437E-02
  5.08325831E-02 -1.58019940E-01 -6.32278691E-02 -6.08278290E-02 -1.83531735E-02
  1.27910694E-02 -5.56902568E-02  1.60625959E-02 -3.25447952E-02 -2.63282126E-02
  1.49217244E-01 -7.57543983E-02 -1.05048589E-01 -1.27150253E-04 -2.93301983E-03
  1.85985566E-01  2.85523242E-02  2.22088626E-01 -7.95399702E-05  1.18323268E-03
 -2.75861186E-01  3.26198244E-01 -1.84766327E-01  1.57332604E-02  2.26374830E-01
 -1.87612353E-01 -1.24459587E-01 -2.45078615E-01  3.86729792E-01  2.26917262E-02
 -6.23085794E-02 -9.56527818E-03  1.21565058E-01 -3.66022479E-02  3.93891925E-02
 -1.17059985E-01 -6.14080773E-02  9.04881190E-02 -1.28633860E-02 -2.49073494E-03
  1.09383558E-02  2.47964583E-01  3.19488464E-01 -7.60817454E-02 -8.28874750E-02
 -1.28111241E-01  2.19757962E-02  7.51338072E-03 -1.81448380E-02  2.91980702E-01
 -2.23994033E-01 -8.24345953E-02 -2.36968602E-02  6.98762070E-02 -2.33964727E-01
 -1.49634212E-01  1.91537759E-01  9.18945210E-02 -5.94306895E-02 -2.75812795E-01
  2.19354764E-01  8.05675489E-02  4.39342377E-02  7.45738834E-02 -2.39366897E-01
  2.27515245E-02  1.03375304E-01  3.51659453E-02 -5.85036046E-02  1.80231016E-01
  8.36049482E-02  6.21635363E-02  2.53616232E-02 -1.51044546E-02  6.80068103E-02
 -1.07969090E-01 -8.43498374E-02  4.07077702E-02 -1.83710472E-01  1.04874614E-01
  1.27526315E-01 -2.10407571E-03  7.14458938E-03  3.07694559E-01  2.23896300E-02
  1.96188481E-01 -9.01768754E-03  3.58981194E-02  1.56899242E-01 -1.21347392E-01
 -2.88249152E-01  1.02403625E-01  2.17104022E-01 -2.85300908E-01 -2.62340092E-01
  1.89047607E-01 -3.87096797E-02 -1.45209406E-02  3.10742727E-02  2.69966292E-02
 -2.23775178E-01  1.22491297E-01  3.32180117E-02 -1.05322530E-01  1.28749708E-01
 -3.46623822E-01  2.08013634E-02  6.59449714E-03 -3.76688732E-02 -5.25981743E-02
  1.13222389E-01  3.01288601E-01  1.84508594E-01  2.56814774E-01 -3.13735736E-01
 -1.49366041E-02  6.05079812E-02  2.17725463E-01 -1.01919628E-01 -1.24362453E-01
  8.46369719E-04 -2.11790180E-04  1.04884126E-01 -7.34637234E-02  2.25523941E-02
  1.87339419E-01 -1.16311486E-01 -1.68401517E-01 -3.95305379E-02  8.63974588E-02
 -9.09896428E-02  6.22102276E-03 -2.22378569E-02  9.80582714E-03  6.99139789E-03
  4.73264566E-02 -3.90980974E-03  1.25003079E-02 -4.65779555E-03 -6.29826936E-03
  5.26953402E-03  9.06153710E-03 -3.61140390E-02 -2.55329091E-02 -3.55050631E-02
  2.42764233E-01 -2.30646166E-02  3.10420908E-03 -2.92697877E-04 -2.83177178E-04
  1.45136586E-03  2.28780458E-03 -4.90750535E-02  3.86319401E-01  7.76940651E-04
  9.41918286E-04  1.41637670E-01  8.02251250E-02  3.46176055E-01 -1.89488744E-01
  3.01592709E-01 -1.03781499E-01  2.72458626E-01 -1.39830766E-01 -2.00846839E-01
  2.47955853E-02 -7.58878274E-02 -2.58894197E-02  2.67153439E-02 -6.05411836E-05
 -2.25431177E-02  7.25751059E-02  3.10392238E-02  7.13132035E-02  7.78387825E-03
 -7.16624308E-03  3.21653176E-02 -1.25746279E-01 -2.49778802E-01 -8.39904149E-03
 -7.45589197E-02  1.11009350E-02  9.79005547E-02  1.19316551E-02 -5.28963675E-02
  2.46534474E-01  2.63831249E-01 -2.41805607E-01 -1.15023341E-02  5.20928221E-02
  1.23732059E-01  3.16603073E-01  1.81589970E-01  3.79437929E-01 -1.31538777E-01
 -8.52813946E-02  1.69889213E-01 -3.16823076E-01 -2.61931125E-02  3.15198749E-02
 -8.77936733E-02 -4.53704074E-02 -4.09186455E-01 -1.56585030E-01 -1.67992782E-02
  4.90597720E-02  2.27409779E-01  2.51061596E-01  3.25141351E-02  4.73037148E-03
 -9.52067759E-03 -1.96297582E-01  1.86396141E-01 -2.55714428E-01  3.98758202E-01
  1.55143677E-02  3.23610635E-01 -1.31739684E-02  5.34054273E-02  3.58750091E-02
 -1.56888824E-01  1.60516690E-02  6.55537222E-03 -3.00333875E-02 -7.52751570E-03
 -1.61911612E-03  5.71031654E-02 -3.82505716E-02  4.89597900E-02 -1.04393770E-01
  7.74541973E-02 -4.75093392E-03 -5.94397926E-02  8.78370447E-03 -1.52781574E-02
 -3.62082402E-01 -6.27414601E-02  2.06859654E-01  2.92336847E-02 -7.92707014E-02
  2.11629475E-01  2.09634557E-01  1.61617915E-01  1.15033169E-02 -8.28399369E-02
  3.10513770E-01 -6.72678609E-02  5.54386700E-01  6.92481325E-02  3.73862092E-02
  1.97462513E-01  3.18260647E-06  2.01989090E-03 -4.65869428E-02 -2.80075530E-03
 -4.01866301E-02  1.23274396E-02 -4.85593005E-02 -1.27765503E-01 -1.38146538E-03
 -3.85514946E-02  1.92094221E-02 -1.28676967E-01  1.07245802E-01 -1.19645167E-01
  7.01490331E-03  1.70376533E-01  3.96245251E-02 -1.16871458E-01 -2.62039473E-01
  7.15116851E-02 -1.67856162E-01  1.32894184E-02 -2.02524445E-02  3.55739149E-01
 -1.73310420E-01  2.37199681E-02 -4.63377092E-02  2.02997839E-01  2.70270907E-01
 -1.29606626E-01 -3.69983902E-01 -1.28786575E-01  3.77295478E-01 -1.41800905E-01
  8.79812844E-03 -3.51683503E-02 -3.19560589E-02  1.01959852E-01  7.68248964E-02
  1.71190817E-02 -6.45970231E-02 -1.42849025E-01 -3.34227627E-02  8.05170624E-02
 -7.70121862E-02  1.19933160E-01  3.08755302E-02  1.24586274E-01 -6.32906376E-02
  3.29377352E-02  2.22987170E-03 -1.62786174E-02  1.32347582E-01  9.37586324E-02
 -7.81374641E-01 -5.77661445E-04  2.02899040E-03 -9.22504168E-02 -1.10447634E-01
  7.88102198E-01  1.74897025E-02 -1.03477038E-01  6.07009077E-02 -3.71172075E-03
  2.41900462E-01  1.72031663E-02 -1.91291816E-02  4.78144007E-03 -5.82943268E-03
  2.89704536E-02  8.66833995E-03 -3.37073836E-02  2.67761180E-02 -1.76886049E-02